 Entering Gaussian System, Link 0=g16
 AtFile(1): /home/561/yj5695/Basis/6-31pGd.gbs
 Initial command:
 /apps/gaussian/g16c01/g16/l1.exe "/jobfs/40839085.gadi-pbs/Gau-1913437.inp" -scrdir="/jobfs/40839085.gadi-pbs/"
 Entering Link 1 = /apps/gaussian/g16c01/g16/l1.exe PID=   1913438.
  
 Copyright (c) 1988-2019, Gaussian, Inc.  All Rights Reserved.
  
 This is part of the Gaussian(R) 16 program.  It is based on
 the Gaussian(R) 09 system (copyright 2009, Gaussian, Inc.),
 the Gaussian(R) 03 system (copyright 2003, Gaussian, Inc.),
 the Gaussian(R) 98 system (copyright 1998, Gaussian, Inc.),
 the Gaussian(R) 94 system (copyright 1995, Gaussian, Inc.),
 the Gaussian 92(TM) system (copyright 1992, Gaussian, Inc.),
 the Gaussian 90(TM) system (copyright 1990, Gaussian, Inc.),
 the Gaussian 88(TM) system (copyright 1988, Gaussian, Inc.),
 the Gaussian 86(TM) system (copyright 1986, Carnegie Mellon
 University), and the Gaussian 82(TM) system (copyright 1983,
 Carnegie Mellon University). Gaussian is a federally registered
 trademark of Gaussian, Inc.
  
 This software contains proprietary and confidential information,
 including trade secrets, belonging to Gaussian, Inc.
  
 This software is provided under written license and may be
 used, copied, transmitted, or stored only in accord with that
 written license.
  
 The following legend is applicable only to US Government
 contracts under FAR:
  
                    RESTRICTED RIGHTS LEGEND
  
 Use, reproduction and disclosure by the US Government is
 subject to restrictions as set forth in subparagraphs (a)
 and (c) of the Commercial Computer Software - Restricted
 Rights clause in FAR 52.227-19.
  
 Gaussian, Inc.
 340 Quinnipiac St., Bldg. 40, Wallingford CT 06492
  
  
 ---------------------------------------------------------------
 Warning -- This program may not be used in any manner that
 competes with the business of Gaussian, Inc. or will provide
 assistance to any competitor of Gaussian, Inc.  The licensee
 of this program is prohibited from giving any competitor of
 Gaussian, Inc. access to this program.  By using this program,
 the user acknowledges that Gaussian, Inc. is engaged in the
 business of creating and licensing software in the field of
 computational chemistry and represents and warrants to the
 licensee that it is not a competitor of Gaussian, Inc. and that
 it will not use this program in any manner prohibited above.
 ---------------------------------------------------------------
  

 Cite this work as:
 Gaussian 16, Revision C.01,
 M. J. Frisch, G. W. Trucks, H. B. Schlegel, G. E. Scuseria, 
 M. A. Robb, J. R. Cheeseman, G. Scalmani, V. Barone, 
 G. A. Petersson, H. Nakatsuji, X. Li, M. Caricato, A. V. Marenich, 
 J. Bloino, B. G. Janesko, R. Gomperts, B. Mennucci, H. P. Hratchian, 
 J. V. Ortiz, A. F. Izmaylov, J. L. Sonnenberg, D. Williams-Young, 
 F. Ding, F. Lipparini, F. Egidi, J. Goings, B. Peng, A. Petrone, 
 T. Henderson, D. Ranasinghe, V. G. Zakrzewski, J. Gao, N. Rega, 
 G. Zheng, W. Liang, M. Hada, M. Ehara, K. Toyota, R. Fukuda, 
 J. Hasegawa, M. Ishida, T. Nakajima, Y. Honda, O. Kitao, H. Nakai, 
 T. Vreven, K. Throssell, J. A. Montgomery, Jr., J. E. Peralta, 
 F. Ogliaro, M. J. Bearpark, J. J. Heyd, E. N. Brothers, K. N. Kudin, 
 V. N. Staroverov, T. A. Keith, R. Kobayashi, J. Normand, 
 K. Raghavachari, A. P. Rendell, J. C. Burant, S. S. Iyengar, 
 J. Tomasi, M. Cossi, J. M. Millam, M. Klene, C. Adamo, R. Cammi, 
 J. W. Ochterski, R. L. Martin, K. Morokuma, O. Farkas, 
 J. B. Foresman, and D. J. Fox, Gaussian, Inc., Wallingford CT, 2019.
 
 ******************************************
 Gaussian 16:  ES64L-G16RevC.01  3-Jul-2019
                21-May-2022 
 ******************************************
 %nproc=16
 Will use up to   16 processors via shared memory.
 %mem=20gb
 --------------------------------------------------
 #M062X/gen 6D INT(grid=ultrafine) OPT Freq=noraman
 --------------------------------------------------
 1/18=20,19=15,26=4,38=1/1,3;
 2/9=110,12=2,17=6,18=5,40=1/2;
 3/5=7,8=2,11=2,25=1,30=1,71=1,74=-55,75=-5/1,2,3;
 4//1;
 5/5=2,38=5/2;
 6/7=2,8=2,9=2,10=2,28=1/1;
 7//1,2,3,16;
 1/18=20,19=15,26=4/3(2);
 2/9=110/2;
 99//99;
 2/9=110/2;
 3/5=7,6=1,8=2,11=2,25=1,30=1,71=1,74=-55,75=-5,82=7/1,2,3;
 4/5=5,16=3,69=1/1;
 5/5=2,38=5/2;
 7//1,2,3,16;
 1/18=20,19=15,26=4/3(-5);
 2/9=110/2;
 6/7=2,8=2,9=2,10=2,19=2,28=1/1;
 99/9=1/99;
 -----------------
 HA.26.a2c2d2.freq
 -----------------
 Symbolic Z-matrix:
 Charge =  0 Multiplicity = 1
 C                    -1.13324   0.59198  -0.72296 
 N                    -1.74886   1.50522  -1.38422 
 N                    -1.14977   1.69886  -2.57233 
 C                    -0.05501   0.94282  -2.84774 
 N                     0.59145   1.05669  -3.97309 
 S                     0.25604  -0.13152  -1.48292 
 S                    -1.6587    0.17111   0.92834 
 O                    -3.1026    0.33274   0.97717 
 O                    -1.02864  -1.11379   1.20272 
 N                    -1.00981   1.25771   1.96137 
 H                    -1.35757   2.20815   1.81594 
 C                    -1.6864    2.68668  -3.50548 
 H                    -2.55129   3.14251  -3.02786 
 H                    -1.98165   2.18962  -4.43044 
 H                    -0.92568   3.44049  -3.71207 
 H                     0.01148   1.22413   1.98793 
 C                     1.69135   0.24151  -4.1439 
 C                     2.40793   0.41396  -5.44859 
 O                     2.06529  -0.57257  -3.29073 
 H                     2.75334   1.44839  -5.54228 
 H                     1.7167    0.2216   -6.27508 
 H                     3.25688  -0.26739  -5.50807 
 

 GradGradGradGradGradGradGradGradGradGradGradGradGradGradGradGradGradGrad
 Berny optimization.
 Initialization pass.
                           ----------------------------
                           !    Initial Parameters    !
                           ! (Angstroms and Degrees)  !
 --------------------------                            --------------------------
 ! Name  Definition              Value          Derivative Info.                !
 --------------------------------------------------------------------------------
 ! R1    R(1,2)                  1.2846         estimate D2E/DX2                !
 ! R2    R(1,6)                  1.741          estimate D2E/DX2                !
 ! R3    R(1,7)                  1.7833         estimate D2E/DX2                !
 ! R4    R(2,3)                  1.3446         estimate D2E/DX2                !
 ! R5    R(3,4)                  1.3587         estimate D2E/DX2                !
 ! R6    R(3,12)                 1.461          estimate D2E/DX2                !
 ! R7    R(4,5)                  1.3028         estimate D2E/DX2                !
 ! R8    R(4,6)                  1.7646         estimate D2E/DX2                !
 ! R9    R(5,17)                 1.3797         estimate D2E/DX2                !
 ! R10   R(7,8)                  1.4537         estimate D2E/DX2                !
 ! R11   R(7,9)                  1.4571         estimate D2E/DX2                !
 ! R12   R(7,10)                 1.6337         estimate D2E/DX2                !
 ! R13   R(10,11)                1.0225         estimate D2E/DX2                !
 ! R14   R(10,16)                1.0222         estimate D2E/DX2                !
 ! R15   R(12,13)                1.0881         estimate D2E/DX2                !
 ! R16   R(12,14)                1.0908         estimate D2E/DX2                !
 ! R17   R(12,15)                1.0907         estimate D2E/DX2                !
 ! R18   R(17,18)                1.4985         estimate D2E/DX2                !
 ! R19   R(17,19)                1.2371         estimate D2E/DX2                !
 ! R20   R(18,20)                1.0946         estimate D2E/DX2                !
 ! R21   R(18,21)                1.0945         estimate D2E/DX2                !
 ! R22   R(18,22)                1.0902         estimate D2E/DX2                !
 ! A1    A(2,1,6)              116.9453         estimate D2E/DX2                !
 ! A2    A(2,1,7)              120.2138         estimate D2E/DX2                !
 ! A3    A(6,1,7)              122.7697         estimate D2E/DX2                !
 ! A4    A(1,2,3)              110.102          estimate D2E/DX2                !
 ! A5    A(2,3,4)              117.2573         estimate D2E/DX2                !
 ! A6    A(2,3,12)             119.8727         estimate D2E/DX2                !
 ! A7    A(4,3,12)             122.8694         estimate D2E/DX2                !
 ! A8    A(3,4,5)              121.7553         estimate D2E/DX2                !
 ! A9    A(3,4,6)              108.9079         estimate D2E/DX2                !
 ! A10   A(5,4,6)              129.3347         estimate D2E/DX2                !
 ! A11   A(4,5,17)             116.8008         estimate D2E/DX2                !
 ! A12   A(1,6,4)               86.7864         estimate D2E/DX2                !
 ! A13   A(1,7,8)              107.3094         estimate D2E/DX2                !
 ! A14   A(1,7,9)              104.7777         estimate D2E/DX2                !
 ! A15   A(1,7,10)             108.151          estimate D2E/DX2                !
 ! A16   A(8,7,9)              121.4117         estimate D2E/DX2                !
 ! A17   A(8,7,10)             107.417          estimate D2E/DX2                !
 ! A18   A(9,7,10)             107.1991         estimate D2E/DX2                !
 ! A19   A(7,10,11)            113.156          estimate D2E/DX2                !
 ! A20   A(7,10,16)            113.0435         estimate D2E/DX2                !
 ! A21   A(11,10,16)           111.9667         estimate D2E/DX2                !
 ! A22   A(3,12,13)            107.1481         estimate D2E/DX2                !
 ! A23   A(3,12,14)            109.4466         estimate D2E/DX2                !
 ! A24   A(3,12,15)            109.3952         estimate D2E/DX2                !
 ! A25   A(13,12,14)           110.364          estimate D2E/DX2                !
 ! A26   A(13,12,15)           110.3655         estimate D2E/DX2                !
 ! A27   A(14,12,15)           110.0664         estimate D2E/DX2                !
 ! A28   A(5,17,18)            114.8997         estimate D2E/DX2                !
 ! A29   A(5,17,19)            122.9838         estimate D2E/DX2                !
 ! A30   A(18,17,19)           122.1165         estimate D2E/DX2                !
 ! A31   A(17,18,20)           109.523          estimate D2E/DX2                !
 ! A32   A(17,18,21)           109.5879         estimate D2E/DX2                !
 ! A33   A(17,18,22)           110.3633         estimate D2E/DX2                !
 ! A34   A(20,18,21)           107.5028         estimate D2E/DX2                !
 ! A35   A(20,18,22)           109.8906         estimate D2E/DX2                !
 ! A36   A(21,18,22)           109.9233         estimate D2E/DX2                !
 ! D1    D(6,1,2,3)              0.1669         estimate D2E/DX2                !
 ! D2    D(7,1,2,3)            177.1826         estimate D2E/DX2                !
 ! D3    D(2,1,6,4)              0.0197         estimate D2E/DX2                !
 ! D4    D(7,1,6,4)           -176.9132         estimate D2E/DX2                !
 ! D5    D(2,1,7,8)             33.5651         estimate D2E/DX2                !
 ! D6    D(2,1,7,9)            163.8653         estimate D2E/DX2                !
 ! D7    D(2,1,7,10)           -82.0364         estimate D2E/DX2                !
 ! D8    D(6,1,7,8)           -149.599          estimate D2E/DX2                !
 ! D9    D(6,1,7,9)            -19.2988         estimate D2E/DX2                !
 ! D10   D(6,1,7,10)            94.7995         estimate D2E/DX2                !
 ! D11   D(1,2,3,4)             -0.3414         estimate D2E/DX2                !
 ! D12   D(1,2,3,12)           179.4009         estimate D2E/DX2                !
 ! D13   D(2,3,4,5)            179.8792         estimate D2E/DX2                !
 ! D14   D(2,3,4,6)              0.3521         estimate D2E/DX2                !
 ! D15   D(12,3,4,5)             0.1453         estimate D2E/DX2                !
 ! D16   D(12,3,4,6)          -179.3819         estimate D2E/DX2                !
 ! D17   D(2,3,12,13)            0.6133         estimate D2E/DX2                !
 ! D18   D(2,3,12,14)         -119.0661         estimate D2E/DX2                !
 ! D19   D(2,3,12,15)          120.266          estimate D2E/DX2                !
 ! D20   D(4,3,12,13)         -179.6594         estimate D2E/DX2                !
 ! D21   D(4,3,12,14)           60.6611         estimate D2E/DX2                !
 ! D22   D(4,3,12,15)          -60.0068         estimate D2E/DX2                !
 ! D23   D(3,4,5,17)           179.803          estimate D2E/DX2                !
 ! D24   D(6,4,5,17)            -0.7754         estimate D2E/DX2                !
 ! D25   D(3,4,6,1)             -0.1966         estimate D2E/DX2                !
 ! D26   D(5,4,6,1)           -179.6768         estimate D2E/DX2                !
 ! D27   D(4,5,17,18)         -179.6121         estimate D2E/DX2                !
 ! D28   D(4,5,17,19)            0.3792         estimate D2E/DX2                !
 ! D29   D(1,7,10,11)           64.7003         estimate D2E/DX2                !
 ! D30   D(1,7,10,16)          -63.9122         estimate D2E/DX2                !
 ! D31   D(8,7,10,11)          -50.8309         estimate D2E/DX2                !
 ! D32   D(8,7,10,16)         -179.4434         estimate D2E/DX2                !
 ! D33   D(9,7,10,11)          177.1869         estimate D2E/DX2                !
 ! D34   D(9,7,10,16)           48.5744         estimate D2E/DX2                !
 ! D35   D(5,17,18,20)          59.2656         estimate D2E/DX2                !
 ! D36   D(5,17,18,21)         -58.4364         estimate D2E/DX2                !
 ! D37   D(5,17,18,22)        -179.6268         estimate D2E/DX2                !
 ! D38   D(19,17,18,20)       -120.7259         estimate D2E/DX2                !
 ! D39   D(19,17,18,21)        121.5722         estimate D2E/DX2                !
 ! D40   D(19,17,18,22)          0.3818         estimate D2E/DX2                !
 --------------------------------------------------------------------------------
 Trust Radius=3.00D-01 FncErr=1.00D-07 GrdErr=1.00D-06 EigMax=2.50D+02 EigMin=1.00D-04
 Number of steps in this run=    108 maximum allowed number of steps=    132.
 GradGradGradGradGradGradGradGradGradGradGradGradGradGradGradGradGradGrad

                          Input orientation:                          
 ---------------------------------------------------------------------
 Center     Atomic      Atomic             Coordinates (Angstroms)
 Number     Number       Type             X           Y           Z
 ---------------------------------------------------------------------
      1          6           0       -1.133237    0.591982   -0.722960
      2          7           0       -1.748857    1.505225   -1.384222
      3          7           0       -1.149768    1.698857   -2.572326
      4          6           0       -0.055009    0.942822   -2.847736
      5          7           0        0.591453    1.056686   -3.973092
      6         16           0        0.256040   -0.131522   -1.482924
      7         16           0       -1.658701    0.171115    0.928342
      8          8           0       -3.102596    0.332740    0.977168
      9          8           0       -1.028641   -1.113793    1.202722
     10          7           0       -1.009807    1.257712    1.961368
     11          1           0       -1.357571    2.208148    1.815940
     12          6           0       -1.686404    2.686678   -3.505482
     13          1           0       -2.551287    3.142509   -3.027860
     14          1           0       -1.981649    2.189620   -4.430442
     15          1           0       -0.925677    3.440488   -3.712074
     16          1           0        0.011485    1.224126    1.987935
     17          6           0        1.691354    0.241514   -4.143898
     18          6           0        2.407929    0.413961   -5.448589
     19          8           0        2.065286   -0.572570   -3.290735
     20          1           0        2.753344    1.448395   -5.542281
     21          1           0        1.716702    0.221602   -6.275085
     22          1           0        3.256882   -0.267386   -5.508073
 ---------------------------------------------------------------------
                    Distance matrix (angstroms):
                    1          2          3          4          5
     1  C    0.000000
     2  N    1.284628   0.000000
     3  N    2.155365   1.344615   0.000000
     4  C    2.408389   2.308093   1.358653   0.000000
     5  N    3.708620   3.518592   2.325163   1.302806   0.000000
     6  S    1.741004   2.590038   2.552132   1.764562   2.779438
     7  S    1.783267   2.671317   3.853269   4.174461   5.465481
     8  O    2.614578   2.963696   4.275362   4.928477   6.218937
     9  O    2.574657   3.751033   4.709210   4.645841   5.841638
    10  N    2.768401   3.435176   4.557255   4.913072   6.149980
    11  H    3.018001   3.299734   4.422605   5.004757   6.215903
    12  C    3.526496   2.428883   1.461010   2.476916   2.839748
    13  H    3.718685   2.454819   2.062983   3.332037   3.888565
    14  H    4.125248   3.130821   2.094151   2.787724   2.848431
    15  H    4.134232   3.137158   2.093447   2.782710   2.837662
    16  H    3.009808   3.814350   4.729678   4.844302   5.991514
    17  C    4.450164   4.587791   3.558885   2.285093   1.379660
    18  C    5.907886   5.915133   4.751953   3.620800   2.426885
    19  O    4.263825   4.743386   4.001508   2.643542   2.300493
    20  H    6.250185   6.128825   4.910973   3.924669   2.699919
    21  H    6.251834   6.130116   4.910128   3.925027   2.694943
    22  H    6.550494   6.723520   5.648300   4.417082   3.348708
                    6          7          8          9         10
     6  S    0.000000
     7  S    3.093870   0.000000
     8  O    4.189037   1.453733   0.000000
     9  O    3.134958   1.457136   2.538626   0.000000
    10  N    3.923708   1.633677   2.490781   2.489966   0.000000
    11  H    4.354343   2.242323   2.695515   3.394042   1.022457
    12  C    3.975686   5.097806   5.257450   6.086330   5.690885
    13  H    4.581178   5.027666   4.923311   6.191315   5.551668
    14  H    4.368387   5.735436   5.826386   6.599492   6.532087
    15  H    4.373193   5.723599   6.032087   6.701291   6.079435
    16  H    3.734227   2.240779   3.393187   2.676618   1.022189
    17  C    3.046319   6.079099   7.015383   6.149925   6.753014
    18  C    4.544741   7.567146   8.465390   7.640941   8.203675
    19  O    2.595395   5.676421   6.763253   5.482378   6.355369
    20  H    5.021060   7.935147   8.834022   8.146366   8.396571
    21  H    5.022253   7.955203   8.708224   8.076991   8.737650
    22  H    5.022482   8.110652   9.102827   8.007302   8.736309
                   11         12         13         14         15
    11  H    0.000000
    12  C    5.353004   0.000000
    13  H    5.075469   1.088084   0.000000
    14  H    6.277507   1.090773   1.788776   0.000000
    15  H    5.680153   1.090695   1.788728   1.787679   0.000000
    16  H    1.694756   5.932918   5.950310   6.789721   6.187135
    17  C    6.977339   4.218490   5.259403   4.167514   4.155569
    18  C    8.376841   5.069958   6.156194   4.843344   4.825792
    19  O    6.747331   4.974334   5.931582   5.030537   5.022750
    20  H    8.462876   5.039173   6.109947   4.919935   4.566540
    21  H    8.880439   5.032736   6.106709   4.577510   4.890032
    22  H    9.003478   6.096962   7.177302   5.885607   5.870923
                   16         17         18         19         20
    16  H    0.000000
    17  C    6.433261   0.000000
    18  C    7.855010   1.498478   0.000000
    19  O    5.942269   1.237112   2.397286   0.000000
    20  H    8.016997   2.130695   1.094597   3.102770   0.000000
    21  H    8.496488   2.131431   1.094483   3.107823   1.765404
    22  H    8.303453   2.137950   1.090181   2.535670   1.788470
                   21         22
    21  H    0.000000
    22  H    1.788735   0.000000
 Stoichiometry    C5H8N4O3S2
 Framework group  C1[X(C5H8N4O3S2)]
 Deg. of freedom    60
 Full point group                 C1      NOp   1
 Largest Abelian subgroup         C1      NOp   1
 Largest concise Abelian subgroup C1      NOp   1
                         Standard orientation:                         
 ---------------------------------------------------------------------
 Center     Atomic      Atomic             Coordinates (Angstroms)
 Number     Number       Type             X           Y           Z
 ---------------------------------------------------------------------
      1          6           0       -1.026149    0.181461   -0.108295
      2          7           0       -0.724073    1.429350   -0.065944
      3          7           0        0.611194    1.580241   -0.018153
      4          6           0        1.365407    0.450155   -0.015536
      5          7           0        2.666777    0.494444    0.026644
      6         16           0        0.295807   -0.951317   -0.089771
      7         16           0       -2.734795   -0.328956   -0.101882
      8          8           0       -3.491295    0.683283   -0.820505
      9          8           0       -2.709879   -1.716464   -0.546234
     10          7           0       -3.260904   -0.326411    1.444760
     11          1           0       -3.270079    0.605738    1.864798
     12          6           0        1.191057    2.920635    0.022471
     13          1           0        0.364399    3.628115    0.016503
     14          1           0        1.824091    3.069151   -0.853313
     15          1           0        1.780208    3.032949    0.933461
     16          1           0       -2.775430   -1.006406    2.033650
     17          6           0        3.330619   -0.715006    0.029127
     18          6           0        4.824586   -0.614574    0.087523
     19          8           0        2.745818   -1.804345   -0.013220
     20          1           0        5.120078   -0.080669    0.996244
     21          1           0        5.187082   -0.035119   -0.767300
     22          1           0        5.272231   -1.608576    0.079196
 ---------------------------------------------------------------------
 Rotational constants (GHZ):           1.2159554           0.3233397           0.2708705
 General basis read from cards:  (6D, 7F)
 There are   290 symmetry adapted cartesian basis functions of A   symmetry.
 There are   290 symmetry adapted basis functions of A   symmetry.
   290 basis functions,   528 primitive gaussians,   290 cartesian basis functions
    61 alpha electrons       61 beta electrons
       nuclear repulsion energy      1198.6911868673 Hartrees.
 NAtoms=   22 NActive=   22 NUniq=   22 SFac= 1.00D+00 NAtFMM=   60 NAOKFM=F Big=F
 Integral buffers will be    131072 words long.
 Raffenetti 2 integral format.
 Two-electron integral symmetry is turned on.
 One-electron integrals computed using PRISM.
 NBasis=   290 RedAO= T EigKep=  1.32D-05  NBF=   290
 NBsUse=   290 1.00D-06 EigRej= -1.00D+00 NBFU=   290
 ExpMin= 4.05D-02 ExpMax= 2.19D+04 ExpMxC= 3.30D+03 IAcc=3 IRadAn=         5 AccDes= 0.00D+00
 Harris functional with IExCor= 1009 and IRadAn=       5 diagonalized for initial guess.
 HarFok:  IExCor= 1009 AccDes= 0.00D+00 IRadAn=         5 IDoV= 1 UseB2=F ITyADJ=14
 ICtDFT=  3500011 ScaDFX=  1.000000  1.000000  1.000000  1.000000
 FoFCou: FMM=F IPFlag=           0 FMFlag=      100000 FMFlg1=           0
         NFxFlg=           0 DoJE=T BraDBF=F KetDBF=T FulRan=T
         wScrn=  0.000000 ICntrl=       500 IOpCl=  0 I1Cent=   200000004 NGrid=           0
         NMat0=    1 NMatS0=      1 NMatT0=    0 NMatD0=    1 NMtDS0=    0 NMtDT0=    0
 Petite list used in FoFCou.
 Requested convergence on RMS density matrix=1.00D-08 within 128 cycles.
 Requested convergence on MAX density matrix=1.00D-06.
 Requested convergence on             energy=1.00D-06.
 No special actions if energy rises.
 SCF Done:  E(RM062X) =  -1436.00871182     A.U. after   16 cycles
            NFock= 16  Conv=0.48D-08     -V/T= 2.0055

 **********************************************************************

            Population analysis using the SCF Density.

 **********************************************************************

 Orbital symmetries:
       Occupied  (A) (A) (A) (A) (A) (A) (A) (A) (A) (A) (A) (A)
                 (A) (A) (A) (A) (A) (A) (A) (A) (A) (A) (A) (A)
                 (A) (A) (A) (A) (A) (A) (A) (A) (A) (A) (A) (A)
                 (A) (A) (A) (A) (A) (A) (A) (A) (A) (A) (A) (A)
                 (A) (A) (A) (A) (A) (A) (A) (A) (A) (A) (A) (A)
                 (A)
       Virtual   (A) (A) (A) (A) (A) (A) (A) (A) (A) (A) (A) (A)
                 (A) (A) (A) (A) (A) (A) (A) (A) (A) (A) (A) (A)
                 (A) (A) (A) (A) (A) (A) (A) (A) (A) (A) (A) (A)
                 (A) (A) (A) (A) (A) (A) (A) (A) (A) (A) (A) (A)
                 (A) (A) (A) (A) (A) (A) (A) (A) (A) (A) (A) (A)
                 (A) (A) (A) (A) (A) (A) (A) (A) (A) (A) (A) (A)
                 (A) (A) (A) (A) (A) (A) (A) (A) (A) (A) (A) (A)
                 (A) (A) (A) (A) (A) (A) (A) (A) (A) (A) (A) (A)
                 (A) (A) (A) (A) (A) (A) (A) (A) (A) (A) (A) (A)
                 (A) (A) (A) (A) (A) (A) (A) (A) (A) (A) (A) (A)
                 (A) (A) (A) (A) (A) (A) (A) (A) (A) (A) (A) (A)
                 (A) (A) (A) (A) (A) (A) (A) (A) (A) (A) (A) (A)
                 (A) (A) (A) (A) (A) (A) (A) (A) (A) (A) (A) (A)
                 (A) (A) (A) (A) (A) (A) (A) (A) (A) (A) (A) (A)
                 (A) (A) (A) (A) (A) (A) (A) (A) (A) (A) (A) (A)
                 (A) (A) (A) (A) (A) (A) (A) (A) (A) (A) (A) (A)
                 (A) (A) (A) (A) (A) (A) (A) (A) (A) (A) (A) (A)
                 (A) (A) (A) (A) (A) (A) (A) (A) (A) (A) (A) (A)
                 (A) (A) (A) (A) (A) (A) (A) (A) (A) (A) (A) (A)
                 (A)
 The electronic state is 1-A.
 Alpha  occ. eigenvalues --  -90.19483 -90.00621 -19.66345 -19.66296 -19.64183
 Alpha  occ. eigenvalues --  -14.89429 -14.86261 -14.83191 -14.77198 -10.69910
 Alpha  occ. eigenvalues --  -10.66862 -10.66460 -10.61857 -10.55318  -8.50359
 Alpha  occ. eigenvalues --   -8.34882  -6.42576  -6.42505  -6.42490  -6.26850
 Alpha  occ. eigenvalues --   -6.26626  -6.26342  -1.26911  -1.23156  -1.17780
 Alpha  occ. eigenvalues --   -1.14959  -1.06277  -1.05782  -1.00555  -0.93282
 Alpha  occ. eigenvalues --   -0.85966  -0.84677  -0.80425  -0.74983  -0.69885
 Alpha  occ. eigenvalues --   -0.67424  -0.64576  -0.62176  -0.61057  -0.59505
 Alpha  occ. eigenvalues --   -0.58752  -0.57097  -0.53998  -0.53276  -0.53095
 Alpha  occ. eigenvalues --   -0.51665  -0.51315  -0.48366  -0.47061  -0.46168
 Alpha  occ. eigenvalues --   -0.44030  -0.43110  -0.42795  -0.42144  -0.40726
 Alpha  occ. eigenvalues --   -0.40355  -0.39870  -0.38402  -0.37191  -0.33798
 Alpha  occ. eigenvalues --   -0.30980
 Alpha virt. eigenvalues --   -0.04027  -0.01234  -0.01168   0.00743   0.02176
 Alpha virt. eigenvalues --    0.02950   0.03127   0.03340   0.04528   0.05039
 Alpha virt. eigenvalues --    0.05754   0.05889   0.06277   0.06462   0.06920
 Alpha virt. eigenvalues --    0.07528   0.07964   0.08209   0.08575   0.09312
 Alpha virt. eigenvalues --    0.09863   0.10375   0.10822   0.11605   0.11991
 Alpha virt. eigenvalues --    0.12480   0.13854   0.14074   0.14604   0.14929
 Alpha virt. eigenvalues --    0.15316   0.15822   0.16715   0.16884   0.17202
 Alpha virt. eigenvalues --    0.18196   0.19294   0.20026   0.20677   0.21067
 Alpha virt. eigenvalues --    0.21382   0.22269   0.22672   0.22961   0.23652
 Alpha virt. eigenvalues --    0.24110   0.24637   0.25421   0.25684   0.25802
 Alpha virt. eigenvalues --    0.26390   0.27192   0.27412   0.28210   0.29133
 Alpha virt. eigenvalues --    0.29687   0.30079   0.30885   0.31365   0.31783
 Alpha virt. eigenvalues --    0.32417   0.33277   0.34204   0.34386   0.34498
 Alpha virt. eigenvalues --    0.35644   0.36286   0.36502   0.37684   0.38722
 Alpha virt. eigenvalues --    0.39072   0.39895   0.40921   0.42289   0.43516
 Alpha virt. eigenvalues --    0.44354   0.45810   0.46637   0.47737   0.50588
 Alpha virt. eigenvalues --    0.52280   0.54193   0.56743   0.57416   0.58556
 Alpha virt. eigenvalues --    0.61441   0.63457   0.64371   0.67227   0.68654
 Alpha virt. eigenvalues --    0.69094   0.69920   0.71801   0.72407   0.73778
 Alpha virt. eigenvalues --    0.74681   0.76349   0.77992   0.79679   0.79858
 Alpha virt. eigenvalues --    0.84743   0.87765   0.88784   0.90927   0.91692
 Alpha virt. eigenvalues --    0.92416   0.94953   0.95455   0.96284   0.98473
 Alpha virt. eigenvalues --    0.98854   1.00388   1.01319   1.02067   1.02951
 Alpha virt. eigenvalues --    1.04131   1.05568   1.05628   1.06546   1.07587
 Alpha virt. eigenvalues --    1.07736   1.08930   1.11131   1.11797   1.12039
 Alpha virt. eigenvalues --    1.13162   1.15429   1.16530   1.17357   1.18719
 Alpha virt. eigenvalues --    1.19510   1.23788   1.26344   1.27314   1.29658
 Alpha virt. eigenvalues --    1.31726   1.32911   1.34083   1.34564   1.35315
 Alpha virt. eigenvalues --    1.37609   1.38370   1.38922   1.40533   1.41210
 Alpha virt. eigenvalues --    1.41753   1.41894   1.43811   1.46586   1.47707
 Alpha virt. eigenvalues --    1.48578   1.50901   1.54577   1.55621   1.61490
 Alpha virt. eigenvalues --    1.63869   1.64688   1.66964   1.71244   1.73074
 Alpha virt. eigenvalues --    1.74848   1.76048   1.77686   1.81854   1.83414
 Alpha virt. eigenvalues --    1.84993   1.85193   1.85913   1.88759   1.89325
 Alpha virt. eigenvalues --    1.91111   1.92493   1.95521   1.97253   1.98483
 Alpha virt. eigenvalues --    1.99423   2.01502   2.02856   2.03556   2.09397
 Alpha virt. eigenvalues --    2.11744   2.12504   2.15002   2.15530   2.17161
 Alpha virt. eigenvalues --    2.22001   2.26672   2.27884   2.30360   2.30524
 Alpha virt. eigenvalues --    2.32562   2.35876   2.36852   2.37482   2.38655
 Alpha virt. eigenvalues --    2.43918   2.45586   2.46580   2.47531   2.48278
 Alpha virt. eigenvalues --    2.49734   2.56980   2.59157   2.63079   2.70743
 Alpha virt. eigenvalues --    2.81467   2.82537   2.88184   2.91452   2.93939
 Alpha virt. eigenvalues --    2.97752   3.06328   3.11249   3.19991   3.25837
 Alpha virt. eigenvalues --    3.85296   3.98269   4.04922   4.09982   4.17588
 Alpha virt. eigenvalues --    4.21928   4.27018   4.29009   4.33999   4.36672
 Alpha virt. eigenvalues --    4.40522   4.45646   4.46726   4.63685
          Condensed to atoms (all electrons):
               1          2          3          4          5          6
     1  C   10.206556   0.632006  -0.311580  -1.373468   0.000707  -1.491667
     2  N    0.632006   8.829442  -2.051141   0.024795  -0.219713  -0.473030
     3  N   -0.311580  -2.051141   9.259092   0.138691   0.085732   0.276054
     4  C   -1.373468   0.024795   0.138691   7.986304   0.697050   0.216526
     5  N    0.000707  -0.219713   0.085732   0.697050   7.213692  -0.138990
     6  S   -1.491667  -0.473030   0.276054   0.216526  -0.138990  17.524812
     7  S   -0.315035   0.230898  -0.369681  -0.622515  -0.012135  -0.858468
     8  O   -0.092959   0.071195  -0.099290  -0.003545  -0.002351   0.045670
     9  O    0.012017  -0.007844   0.004994   0.007879  -0.000295   0.031610
    10  N   -0.106308  -0.183418   0.214227   0.087383   0.003732   0.251359
    11  H   -0.021710   0.007720  -0.008297  -0.002116  -0.000070  -0.006130
    12  C   -0.028388   0.103314   0.093384  -0.123470  -0.031276  -0.045464
    13  H   -0.007095   0.054204  -0.098403   0.018830   0.002875  -0.000899
    14  H    0.020003  -0.019161   0.001729  -0.028599  -0.006637  -0.001499
    15  H   -0.003641  -0.025783  -0.005079  -0.003850  -0.000425  -0.002810
    16  H   -0.006349   0.000432  -0.005073  -0.009607  -0.000093  -0.024001
    17  C   -0.210705  -0.092914   0.010857  -0.114655  -0.066714  -0.094908
    18  C    0.170059   0.062780   0.011651  -0.267254  -0.163467  -0.198727
    19  O    0.056969   0.005408   0.008463  -0.164176  -0.136401   0.039642
    20  H   -0.000537  -0.000025  -0.000515  -0.002723  -0.001059   0.002059
    21  H   -0.000261  -0.000115  -0.000649  -0.002076  -0.001474   0.001403
    22  H    0.000051  -0.000008   0.000125   0.003954   0.012566  -0.004250
               7          8          9         10         11         12
     1  C   -0.315035  -0.092959   0.012017  -0.106308  -0.021710  -0.028388
     2  N    0.230898   0.071195  -0.007844  -0.183418   0.007720   0.103314
     3  N   -0.369681  -0.099290   0.004994   0.214227  -0.008297   0.093384
     4  C   -0.622515  -0.003545   0.007879   0.087383  -0.002116  -0.123470
     5  N   -0.012135  -0.002351  -0.000295   0.003732  -0.000070  -0.031276
     6  S   -0.858468   0.045670   0.031610   0.251359  -0.006130  -0.045464
     7  S   16.489744   0.267943   0.177914  -0.703730   0.067766  -0.017242
     8  O    0.267943   8.666956  -0.199473  -0.179513  -0.001238  -0.003080
     9  O    0.177914  -0.199473   8.670605  -0.148802   0.009139  -0.001523
    10  N   -0.703730  -0.179513  -0.148802   8.229450   0.211694   0.004238
    11  H    0.067766  -0.001238   0.009139   0.211694   0.310964  -0.000326
    12  C   -0.017242  -0.003080  -0.001523   0.004238  -0.000326   5.378683
    13  H   -0.000235   0.000053   0.000007   0.000008   0.000000   0.379498
    14  H    0.001031  -0.000007   0.000003   0.000033  -0.000000   0.384260
    15  H   -0.000323  -0.000017  -0.000003  -0.000027  -0.000000   0.388239
    16  H    0.082417   0.009563  -0.005322   0.221759  -0.019710  -0.000094
    17  C   -0.050160   0.002803   0.001307   0.010018  -0.000335   0.015897
    18  C    0.008637   0.000556   0.000152  -0.000014  -0.000007  -0.017665
    19  O   -0.000331  -0.000026   0.000217   0.000164  -0.000000  -0.004229
    20  H   -0.000009  -0.000000  -0.000000  -0.000000   0.000000   0.000067
    21  H    0.000010  -0.000000   0.000000   0.000000  -0.000000   0.000205
    22  H   -0.000008  -0.000000  -0.000000   0.000000  -0.000000  -0.000007
              13         14         15         16         17         18
     1  C   -0.007095   0.020003  -0.003641  -0.006349  -0.210705   0.170059
     2  N    0.054204  -0.019161  -0.025783   0.000432  -0.092914   0.062780
     3  N   -0.098403   0.001729  -0.005079  -0.005073   0.010857   0.011651
     4  C    0.018830  -0.028599  -0.003850  -0.009607  -0.114655  -0.267254
     5  N    0.002875  -0.006637  -0.000425  -0.000093  -0.066714  -0.163467
     6  S   -0.000899  -0.001499  -0.002810  -0.024001  -0.094908  -0.198727
     7  S   -0.000235   0.001031  -0.000323   0.082417  -0.050160   0.008637
     8  O    0.000053  -0.000007  -0.000017   0.009563   0.002803   0.000556
     9  O    0.000007   0.000003  -0.000003  -0.005322   0.001307   0.000152
    10  N    0.000008   0.000033  -0.000027   0.221759   0.010018  -0.000014
    11  H    0.000000  -0.000000  -0.000000  -0.019710  -0.000335  -0.000007
    12  C    0.379498   0.384260   0.388239  -0.000094   0.015897  -0.017665
    13  H    0.438734  -0.021358  -0.022154  -0.000000   0.001187   0.000055
    14  H   -0.021358   0.441367  -0.028687   0.000000  -0.005985  -0.000728
    15  H   -0.022154  -0.028687   0.448844  -0.000000  -0.001638  -0.001538
    16  H   -0.000000   0.000000  -0.000000   0.307964   0.000160   0.000033
    17  C    0.001187  -0.005985  -0.001638   0.000160   6.969026  -1.436505
    18  C    0.000055  -0.000728  -0.001538   0.000033  -1.436505   7.628417
    19  O    0.000026  -0.000075  -0.000067  -0.000006   0.348324   0.042291
    20  H   -0.000000   0.000002  -0.000003   0.000000  -0.005009   0.349755
    21  H   -0.000000  -0.000002   0.000002  -0.000000  -0.003751   0.348262
    22  H    0.000000  -0.000000  -0.000000  -0.000000  -0.158218   0.498253
              19         20         21         22
     1  C    0.056969  -0.000537  -0.000261   0.000051
     2  N    0.005408  -0.000025  -0.000115  -0.000008
     3  N    0.008463  -0.000515  -0.000649   0.000125
     4  C   -0.164176  -0.002723  -0.002076   0.003954
     5  N   -0.136401  -0.001059  -0.001474   0.012566
     6  S    0.039642   0.002059   0.001403  -0.004250
     7  S   -0.000331  -0.000009   0.000010  -0.000008
     8  O   -0.000026  -0.000000  -0.000000  -0.000000
     9  O    0.000217  -0.000000   0.000000  -0.000000
    10  N    0.000164  -0.000000   0.000000   0.000000
    11  H   -0.000000   0.000000  -0.000000  -0.000000
    12  C   -0.004229   0.000067   0.000205  -0.000007
    13  H    0.000026  -0.000000  -0.000000   0.000000
    14  H   -0.000075   0.000002  -0.000002  -0.000000
    15  H   -0.000067  -0.000003   0.000002  -0.000000
    16  H   -0.000006   0.000000  -0.000000  -0.000000
    17  C    0.348324  -0.005009  -0.003751  -0.158218
    18  C    0.042291   0.349755   0.348262   0.498253
    19  O    8.273974   0.001782   0.002184  -0.002612
    20  H    0.001782   0.462038  -0.023371  -0.021682
    21  H    0.002184  -0.023371   0.460116  -0.021452
    22  H   -0.002612  -0.021682  -0.021452   0.447923
 Mulliken charges:
               1
     1  C   -1.128666
     2  N    0.050958
     3  N   -0.155291
     4  C   -0.463357
     5  N   -0.235254
     6  S    0.951706
     7  S    1.623513
     8  O   -0.483238
     9  O   -0.552582
    10  N   -0.912252
    11  H    0.452656
    12  C   -0.475021
    13  H    0.254667
    14  H    0.264308
    15  H    0.258961
    16  H    0.447929
    17  C    0.881917
    18  C   -1.034996
    19  O   -0.471521
    20  H    0.239231
    21  H    0.240968
    22  H    0.245365
 Sum of Mulliken charges =  -0.00000
 Mulliken charges with hydrogens summed into heavy atoms:
               1
     1  C   -1.128666
     2  N    0.050958
     3  N   -0.155291
     4  C   -0.463357
     5  N   -0.235254
     6  S    0.951706
     7  S    1.623513
     8  O   -0.483238
     9  O   -0.552582
    10  N   -0.011668
    12  C    0.302915
    17  C    0.881917
    18  C   -0.309431
    19  O   -0.471521
 Electronic spatial extent (au):  <R**2>=           3922.6282
 Charge=             -0.0000 electrons
 Dipole moment (field-independent basis, Debye):
    X=              2.9301    Y=              4.2339    Z=              4.1880  Tot=              6.6371
 Quadrupole moment (field-independent basis, Debye-Ang):
   XX=           -105.3669   YY=            -97.8176   ZZ=            -89.8017
   XY=              4.2732   XZ=            -12.5486   YZ=             -0.6962
 Traceless Quadrupole moment (field-independent basis, Debye-Ang):
   XX=             -7.7049   YY=             -0.1555   ZZ=              7.8604
   XY=              4.2732   XZ=            -12.5486   YZ=             -0.6962
 Octapole moment (field-independent basis, Debye-Ang**2):
  XXX=             83.3611  YYY=             41.9705  ZZZ=             14.2581  XYY=              1.8625
  XXY=              8.3359  XXZ=             35.2539  XZZ=            -15.0787  YZZ=             -1.6552
  YYZ=              7.5564  XYZ=             -2.0128
 Hexadecapole moment (field-independent basis, Debye-Ang**3):
 XXXX=          -3870.2121 YYYY=           -946.2008 ZZZZ=           -210.6458 XXXY=            -51.5781
 XXXZ=            -86.1826 YYYX=             47.6491 YYYZ=             -6.3539 ZZZX=            -40.0760
 ZZZY=             -3.3978 XXYY=           -878.5169 XXZZ=           -644.0743 YYZZ=           -199.8843
 XXYZ=             12.6653 YYXZ=            -21.8553 ZZXY=              5.6959
 N-N= 1.198691186867D+03 E-N=-5.780204427289D+03  KE= 1.428161334909D+03
 Calling FoFJK, ICntrl=      2127 FMM=F ISym2X=0 I1Cent= 0 IOpClX= 0 NMat=1 NMatS=1 NMatT=0.
 ***** Axes restored to original set *****
 -------------------------------------------------------------------
 Center     Atomic                   Forces (Hartrees/Bohr)
 Number     Number              X              Y              Z
 -------------------------------------------------------------------
      1        6           0.000769340    0.003613094   -0.000924003
      2        7          -0.002140699    0.002585997    0.002152847
      3        7          -0.002706001    0.002874521   -0.001590842
      4        6           0.008139010   -0.002015858   -0.007942580
      5        7          -0.008751509    0.005013747    0.004146978
      6       16           0.002852099   -0.003168542   -0.000299443
      7       16          -0.022956997   -0.028205600   -0.000910338
      8        8           0.012273430    0.004643134   -0.000480194
      9        8           0.001899908    0.011840542   -0.002183732
     10        7           0.009985222    0.014076168    0.002444109
     11        1          -0.000466969   -0.003988459    0.001378758
     12        6           0.000165110   -0.001763366    0.002305209
     13        1          -0.000390364   -0.000568095    0.001024984
     14        1           0.001183239    0.000247534   -0.000847319
     15        1           0.000763641   -0.000577254   -0.001370233
     16        1          -0.003571952   -0.001280208    0.001336597
     17        6           0.007052771   -0.014417079    0.014112329
     18        6           0.001253980    0.000891889   -0.003366611
     19        8          -0.004494106    0.009690622   -0.009361551
     20        1          -0.000477105   -0.000058304   -0.000462827
     21        1           0.000110671    0.000639344    0.000021193
     22        1          -0.000492718   -0.000073825    0.000816669
 -------------------------------------------------------------------
 Cartesian Forces:  Max     0.028205600 RMS     0.006731280

 GradGradGradGradGradGradGradGradGradGradGradGradGradGradGradGradGradGrad
 Berny optimization.
 FormGI is forming the generalized inverse of G from B-inverse, IUseBI=4.
 Internal  Forces:  Max     0.014189207 RMS     0.003099046
 Search for a local minimum.
 Step number   1 out of a maximum of  108
 All quantities printed in internal units (Hartrees-Bohrs-Radians)
 Mixed Optimization -- RFO/linear search
 Second derivative matrix not updated -- first step.
 ITU=  0
     Eigenvalues ---    0.00592   0.00786   0.00885   0.01084   0.01216
     Eigenvalues ---    0.01413   0.01855   0.01961   0.02036   0.02173
     Eigenvalues ---    0.02383   0.02977   0.04365   0.07368   0.07583
     Eigenvalues ---    0.07632   0.07877   0.09715   0.10750   0.14026
     Eigenvalues ---    0.16000   0.16000   0.16000   0.16000   0.16000
     Eigenvalues ---    0.16000   0.16000   0.16000   0.19697   0.24977
     Eigenvalues ---    0.24990   0.24999   0.25000   0.25000   0.25000
     Eigenvalues ---    0.25000   0.25000   0.25000   0.27480   0.28808
     Eigenvalues ---    0.30785   0.32538   0.34287   0.34300   0.34723
     Eigenvalues ---    0.34732   0.34792   0.35035   0.36838   0.43948
     Eigenvalues ---    0.43991   0.45221   0.49165   0.50500   0.54454
     Eigenvalues ---    0.66420   0.68466   0.88186   0.92822   0.94292
 RFO step:  Lambda=-2.92111858D-03 EMin= 5.91653385D-03
 Linear search not attempted -- first point.
 Iteration  1 RMS(Cart)=  0.02356631 RMS(Int)=  0.00046543
 Iteration  2 RMS(Cart)=  0.00065732 RMS(Int)=  0.00012884
 Iteration  3 RMS(Cart)=  0.00000024 RMS(Int)=  0.00012884
 Variable       Old X    -DE/DX   Delta X   Delta X   Delta X     New X
                                 (Linear)    (Quad)   (Total)
    R1        2.42759   0.00144   0.00000   0.00203   0.00203   2.42963
    R2        3.29002   0.00398   0.00000   0.01236   0.01237   3.30239
    R3        3.36989   0.00299   0.00000   0.01077   0.01077   3.38065
    R4        2.54095   0.00184   0.00000   0.00340   0.00340   2.54435
    R5        2.56748   0.00255   0.00000   0.00484   0.00483   2.57231
    R6        2.76091  -0.00314   0.00000  -0.00846  -0.00846   2.75245
    R7        2.46195  -0.00784   0.00000  -0.01175  -0.01175   2.45020
    R8        3.33454   0.00108   0.00000   0.00349   0.00349   3.33802
    R9        2.60718   0.00412   0.00000   0.00832   0.00832   2.61550
   R10        2.74716  -0.01169   0.00000  -0.01236  -0.01236   2.73480
   R11        2.75359  -0.01003   0.00000  -0.01078  -0.01078   2.74281
   R12        3.08720   0.01148   0.00000   0.02523   0.02523   3.11243
   R13        1.93216  -0.00374   0.00000  -0.00846  -0.00846   1.92371
   R14        1.93166  -0.00349   0.00000  -0.00789  -0.00789   1.92377
   R15        2.05618   0.00052   0.00000   0.00147   0.00147   2.05765
   R16        2.06126   0.00029   0.00000   0.00082   0.00082   2.06208
   R17        2.06111   0.00039   0.00000   0.00113   0.00113   2.06224
   R18        2.83171   0.00295   0.00000   0.00899   0.00899   2.84070
   R19        2.33780  -0.01419   0.00000  -0.01604  -0.01604   2.32177
   R20        2.06849  -0.00017   0.00000  -0.00049  -0.00049   2.06800
   R21        2.06827  -0.00020   0.00000  -0.00058  -0.00058   2.06770
   R22        2.06014  -0.00038   0.00000  -0.00108  -0.00108   2.05906
    A1        2.04108   0.00116   0.00000   0.00464   0.00462   2.04570
    A2        2.09813   0.00004   0.00000   0.00038   0.00037   2.09849
    A3        2.14274  -0.00119   0.00000  -0.00453  -0.00455   2.13819
    A4        1.92164  -0.00184   0.00000  -0.00671  -0.00673   1.91491
    A5        2.04653   0.00129   0.00000   0.00549   0.00547   2.05200
    A6        2.09217   0.00056   0.00000   0.00199   0.00200   2.09417
    A7        2.14448  -0.00184   0.00000  -0.00749  -0.00749   2.13699
    A8        2.12503  -0.00136   0.00000  -0.00535  -0.00535   2.11968
    A9        1.90080  -0.00010   0.00000  -0.00050  -0.00052   1.90028
   A10        2.25732   0.00146   0.00000   0.00579   0.00579   2.26311
   A11        2.03856  -0.00491   0.00000  -0.01940  -0.01940   2.01916
   A12        1.51471  -0.00051   0.00000  -0.00299  -0.00299   1.51172
   A13        1.87290   0.00142   0.00000   0.00593   0.00539   1.87829
   A14        1.82872  -0.00032   0.00000  -0.00484  -0.00552   1.82320
   A15        1.88759  -0.00482   0.00000  -0.03485  -0.03532   1.85227
   A16        2.11903   0.00573   0.00000   0.05477   0.05473   2.17377
   A17        1.87478  -0.00169   0.00000  -0.01453  -0.01467   1.86011
   A18        1.87098  -0.00148   0.00000  -0.01584  -0.01621   1.85477
   A19        1.97495  -0.00033   0.00000   0.00483   0.00465   1.97959
   A20        1.97298   0.00059   0.00000   0.01049   0.01031   1.98329
   A21        1.95419   0.00112   0.00000   0.01775   0.01747   1.97166
   A22        1.87009  -0.00126   0.00000  -0.00520  -0.00520   1.86489
   A23        1.91020   0.00023   0.00000  -0.00015  -0.00016   1.91005
   A24        1.90931   0.00012   0.00000  -0.00029  -0.00030   1.90901
   A25        1.92621   0.00089   0.00000   0.00750   0.00750   1.93372
   A26        1.92624   0.00116   0.00000   0.01028   0.01028   1.93652
   A27        1.92102  -0.00114   0.00000  -0.01199  -0.01200   1.90902
   A28        2.00538  -0.00142   0.00000  -0.00562  -0.00563   1.99975
   A29        2.14647   0.00012   0.00000   0.00047   0.00046   2.14694
   A30        2.13133   0.00130   0.00000   0.00515   0.00514   2.13647
   A31        1.91154   0.00047   0.00000   0.00269   0.00269   1.91422
   A32        1.91267   0.00037   0.00000   0.00199   0.00199   1.91466
   A33        1.92620  -0.00127   0.00000  -0.00729  -0.00729   1.91891
   A34        1.87628  -0.00060   0.00000  -0.00472  -0.00472   1.87156
   A35        1.91795   0.00052   0.00000   0.00376   0.00376   1.92172
   A36        1.91852   0.00054   0.00000   0.00370   0.00370   1.92223
    D1        0.00291   0.00032   0.00000   0.00952   0.00948   0.01240
    D2        3.09242   0.00043   0.00000   0.01953   0.01954   3.11196
    D3        0.00034  -0.00014   0.00000  -0.00305  -0.00306  -0.00271
    D4       -3.08772  -0.00030   0.00000  -0.01351  -0.01352  -3.10124
    D5        0.58582  -0.00354   0.00000  -0.00325  -0.00329   0.58253
    D6        2.85999   0.00406   0.00000   0.06371   0.06366   2.92365
    D7       -1.43181   0.00012   0.00000   0.02818   0.02829  -1.40352
    D8       -2.61099  -0.00335   0.00000   0.00766   0.00760  -2.60339
    D9       -0.33683   0.00426   0.00000   0.07462   0.07456  -0.26227
   D10        1.65456   0.00031   0.00000   0.03909   0.03918   1.69374
   D11       -0.00596  -0.00040   0.00000  -0.01340  -0.01338  -0.01934
   D12        3.13114  -0.00042   0.00000  -0.01584  -0.01582   3.11532
   D13        3.13948   0.00015   0.00000   0.00458   0.00462  -3.13908
   D14        0.00614   0.00030   0.00000   0.01108   0.01110   0.01724
   D15        0.00254   0.00017   0.00000   0.00706   0.00709   0.00963
   D16       -3.13080   0.00032   0.00000   0.01357   0.01358  -3.11723
   D17        0.01070  -0.00009   0.00000  -0.00067  -0.00068   0.01003
   D18       -2.07810  -0.00055   0.00000  -0.00654  -0.00654  -2.08464
   D19        2.09904   0.00064   0.00000   0.00845   0.00843   2.10747
   D20       -3.13565  -0.00011   0.00000  -0.00321  -0.00320  -3.13885
   D21        1.05874  -0.00057   0.00000  -0.00908  -0.00907   1.04967
   D22       -1.04732   0.00062   0.00000   0.00591   0.00591  -1.04141
   D23        3.13815  -0.00034   0.00000  -0.00924  -0.00924   3.12892
   D24       -0.01353  -0.00053   0.00000  -0.01725  -0.01725  -0.03079
   D25       -0.00343  -0.00008   0.00000  -0.00431  -0.00429  -0.00772
   D26       -3.13595   0.00010   0.00000   0.00291   0.00297  -3.13298
   D27       -3.13482  -0.00033   0.00000  -0.01316  -0.01317   3.13519
   D28        0.00662  -0.00044   0.00000  -0.02107  -0.02106  -0.01444
   D29        1.12923   0.00145   0.00000   0.02225   0.02230   1.15153
   D30       -1.11548  -0.00034   0.00000  -0.01624  -0.01633  -1.13180
   D31       -0.88717   0.00309   0.00000   0.04036   0.04018  -0.84699
   D32       -3.13188   0.00129   0.00000   0.00187   0.00156  -3.13032
   D33        3.09249  -0.00191   0.00000  -0.00738  -0.00705   3.08545
   D34        0.84778  -0.00370   0.00000  -0.04587  -0.04567   0.80211
   D35        1.03438  -0.00018   0.00000  -0.00575  -0.00575   1.02863
   D36       -1.01991   0.00005   0.00000  -0.00277  -0.00278  -1.02268
   D37       -3.13508  -0.00004   0.00000  -0.00400  -0.00400  -3.13908
   D38       -2.10706  -0.00007   0.00000   0.00208   0.00208  -2.10498
   D39        2.12183   0.00016   0.00000   0.00506   0.00506   2.12689
   D40        0.00666   0.00006   0.00000   0.00383   0.00384   0.01050
         Item               Value     Threshold  Converged?
 Maximum Force            0.014189     0.000450     NO 
 RMS     Force            0.003099     0.000300     NO 
 Maximum Displacement     0.103791     0.001800     NO 
 RMS     Displacement     0.023639     0.001200     NO 
 Predicted change in Energy=-1.496538D-03
 GradGradGradGradGradGradGradGradGradGradGradGradGradGradGradGradGradGrad

                          Input orientation:                          
 ---------------------------------------------------------------------
 Center     Atomic      Atomic             Coordinates (Angstroms)
 Number     Number       Type             X           Y           Z
 ---------------------------------------------------------------------
      1          6           0       -1.130812    0.589426   -0.724668
      2          7           0       -1.739072    1.519362   -1.371409
      3          7           0       -1.142049    1.709001   -2.563226
      4          6           0       -0.050576    0.947620   -2.849373
      5          7           0        0.583700    1.069969   -3.973591
      6         16           0        0.254359   -0.145702   -1.495913
      7         16           0       -1.666580    0.138402    0.921516
      8          8           0       -3.102703    0.308335    0.976684
      9          8           0       -0.973717   -1.106225    1.199913
     10          7           0       -1.020984    1.263046    1.936940
     11          1           0       -1.396821    2.198566    1.796102
     12          6           0       -1.673480    2.694245   -3.495088
     13          1           0       -2.535387    3.152367   -3.012527
     14          1           0       -1.966809    2.197036   -4.421086
     15          1           0       -0.905733    3.439000   -3.711469
     16          1           0       -0.003751    1.244789    1.972380
     17          6           0        1.685649    0.247883   -4.133314
     18          6           0        2.396853    0.404094   -5.448418
     19          8           0        2.062558   -0.541436   -3.270506
     20          1           0        2.736732    1.437985   -5.563000
     21          1           0        1.703606    0.197899   -6.269464
     22          1           0        3.246290   -0.276753   -5.494786
 ---------------------------------------------------------------------
                    Distance matrix (angstroms):
                    1          2          3          4          5
     1  C    0.000000
     2  N    1.285704   0.000000
     3  N    2.152643   1.346413   0.000000
     4  C    2.410308   2.315661   1.361210   0.000000
     5  N    3.704858   3.516899   2.318556   1.296589   0.000000
     6  S    1.747550   2.600328   2.555198   1.766407   2.779427
     7  S    1.788963   2.677650   3.858152   4.181615   5.467509
     8  O    2.619536   2.973149   4.282172   4.935876   6.218913
     9  O    2.569810   3.753821   4.702664   4.633269   5.824647
    10  N    2.747723   3.395073   4.523829   4.893871   6.127534
    11  H    3.002394   3.257541   4.394124   4.995766   6.203673
    12  C    3.521361   2.427894   1.456534   2.470114   2.821719
    13  H    3.711576   2.448284   2.055862   3.325930   3.871528
    14  H    4.116650   3.132353   2.090467   2.775476   2.824115
    15  H    4.134213   3.139323   2.089786   2.771548   2.810591
    16  H    2.995636   3.777254   4.699248   4.831129   5.977477
    17  C    4.434859   4.579683   3.549073   2.269937   1.384063
    18  C    5.898523   5.913687   4.748783   3.611144   2.430232
    19  O    4.237659   4.722907   3.979223   2.619156   2.297385
    20  H    6.251992   6.132607   4.910909   3.920882   2.701333
    21  H    6.239550   6.131007   4.910945   3.916154   2.699209
    22  H    6.531716   6.714321   5.638686   4.400753   3.349191
                    6          7          8          9         10
     6  S    0.000000
     7  S    3.100755   0.000000
     8  O    4.194014   1.447194   0.000000
     9  O    3.114201   1.451434   2.565812   0.000000
    10  N    3.923716   1.647029   2.483369   2.481711   0.000000
    11  H    4.365701   2.254317   2.674781   3.384686   1.017981
    12  C    3.972224   5.102820   5.266117   6.080812   5.655176
    13  H    4.578216   5.031451   4.931954   6.190240   5.510007
    14  H    4.356449   5.733367   5.830383   6.594952   6.495492
    15  H    4.370880   5.739110   6.050333   6.692187   6.054138
    16  H    3.745549   2.256858   3.387013   2.657970   1.018014
    17  C    3.026448   6.066360   7.003146   6.111394   6.723422
    18  C    4.529332   7.560299   8.457908   7.605399   8.183087
    19  O    2.564249   5.651699   6.740969   5.433470   6.315211
    20  H    5.021099   7.945251   8.839829   8.122648   8.390478
    21  H    5.000517   7.941781   8.695945   8.041168   8.712233
    22  H    4.995980   8.091821   9.084711   7.957102   8.706960
                   11         12         13         14         15
    11  H    0.000000
    12  C    5.321554   0.000000
    13  H    5.032791   1.088864   0.000000
    14  H    6.243261   1.091206   1.794429   0.000000
    15  H    5.666850   1.091292   1.796233   1.780986   0.000000
    16  H    1.697471   5.897638   5.907396   6.755500   6.159081
    17  C    6.961663   4.204256   5.244934   4.149995   4.132365
    18  C    8.372285   5.062400   6.149273   4.828208   4.809856
    19  O    6.719035   4.947530   5.903544   5.005882   4.984884
    20  H    8.474734   5.030350   6.102397   4.899328   4.549700
    21  H    8.869536   5.033251   6.107829   4.570010   4.884334
    22  H    8.991258   6.085208   7.165770   5.869315   5.850328
                   16         17         18         19         20
    16  H    0.000000
    17  C    6.413064   0.000000
    18  C    7.844610   1.503233   0.000000
    19  O    5.911691   1.228625   2.397723   0.000000
    20  H    8.020569   2.136614   1.094339   3.102925   0.000000
    21  H    8.481689   2.136810   1.094178   3.109535   1.761889
    22  H    8.284710   2.136457   1.089608   2.533515   1.790148
                   21         22
    21  H    0.000000
    22  H    1.790334   0.000000
 Stoichiometry    C5H8N4O3S2
 Framework group  C1[X(C5H8N4O3S2)]
 Deg. of freedom    60
 Full point group                 C1      NOp   1
 Largest Abelian subgroup         C1      NOp   1
 Largest concise Abelian subgroup C1      NOp   1
                         Standard orientation:                         
 ---------------------------------------------------------------------
 Center     Atomic      Atomic             Coordinates (Angstroms)
 Number     Number       Type             X           Y           Z
 ---------------------------------------------------------------------
      1          6           0       -1.024970    0.183205   -0.106950
      2          7           0       -0.728060    1.432874   -0.050323
      3          7           0        0.609667    1.580623   -0.011804
      4          6           0        1.368669    0.450666   -0.014549
      5          7           0        2.663536    0.505420    0.023724
      6         16           0        0.301587   -0.954393   -0.100198
      7         16           0       -2.736815   -0.336127   -0.123440
      8          8           0       -3.493817    0.672796   -0.832941
      9          8           0       -2.686499   -1.738845   -0.492916
     10          7           0       -3.244185   -0.289400    1.442797
     11          1           0       -3.268880    0.650804    1.832275
     12          6           0        1.194104    2.914334    0.021988
     13          1           0        0.366395    3.621804    0.019289
     14          1           0        1.827359    3.055642   -0.855365
     15          1           0        1.797139    3.022637    0.925058
     16          1           0       -2.768006   -0.956926    2.046132
     17          6           0        3.315691   -0.715341    0.031770
     18          6           0        4.815636   -0.622659    0.067613
     19          8           0        2.722486   -1.791205    0.019666
     20          1           0        5.129705   -0.074536    0.961202
     21          1           0        5.171227   -0.058919   -0.800129
     22          1           0        5.249858   -1.622006    0.069279
 ---------------------------------------------------------------------
 Rotational constants (GHZ):           1.2173873           0.3249917           0.2719293
 Basis read from rwf:  (6D, 7F)
 There are   290 symmetry adapted cartesian basis functions of A   symmetry.
 There are   290 symmetry adapted basis functions of A   symmetry.
   290 basis functions,   528 primitive gaussians,   290 cartesian basis functions
    61 alpha electrons       61 beta electrons
       nuclear repulsion energy      1200.0208237712 Hartrees.
 NAtoms=   22 NActive=   22 NUniq=   22 SFac= 1.00D+00 NAtFMM=   60 NAOKFM=F Big=F
 Integral buffers will be    131072 words long.
 Raffenetti 2 integral format.
 Two-electron integral symmetry is turned on.
 One-electron integrals computed using PRISM.
 NBasis=   290 RedAO= T EigKep=  1.32D-05  NBF=   290
 NBsUse=   290 1.00D-06 EigRej= -1.00D+00 NBFU=   290
 Initial guess from the checkpoint file:  "/jobfs/40839085.gadi-pbs/Gau-1913438.chk"
 B after Tr=    -0.000000   -0.000000    0.000000
         Rot=    0.999995    0.003286   -0.000151    0.000076 Ang=   0.38 deg.
 ExpMin= 4.05D-02 ExpMax= 2.19D+04 ExpMxC= 3.30D+03 IAcc=3 IRadAn=         5 AccDes= 0.00D+00
 Harris functional with IExCor= 1009 and IRadAn=       5 diagonalized for initial guess.
 HarFok:  IExCor= 1009 AccDes= 0.00D+00 IRadAn=         5 IDoV= 1 UseB2=F ITyADJ=14
 ICtDFT=  3500011 ScaDFX=  1.000000  1.000000  1.000000  1.000000
 FoFCou: FMM=F IPFlag=           0 FMFlag=      100000 FMFlg1=           0
         NFxFlg=           0 DoJE=T BraDBF=F KetDBF=T FulRan=T
         wScrn=  0.000000 ICntrl=       500 IOpCl=  0 I1Cent=   200000004 NGrid=           0
         NMat0=    1 NMatS0=      1 NMatT0=    0 NMatD0=    1 NMtDS0=    0 NMtDT0=    0
 Petite list used in FoFCou.
 Requested convergence on RMS density matrix=1.00D-08 within 128 cycles.
 Requested convergence on MAX density matrix=1.00D-06.
 Requested convergence on             energy=1.00D-06.
 No special actions if energy rises.
 SCF Done:  E(RM062X) =  -1436.01022488     A.U. after   13 cycles
            NFock= 13  Conv=0.66D-08     -V/T= 2.0055
 Calling FoFJK, ICntrl=      2127 FMM=F ISym2X=0 I1Cent= 0 IOpClX= 0 NMat=1 NMatS=1 NMatT=0.
 ***** Axes restored to original set *****
 -------------------------------------------------------------------
 Center     Atomic                   Forces (Hartrees/Bohr)
 Number     Number              X              Y              Z
 -------------------------------------------------------------------
      1        6          -0.001548539    0.000602304   -0.001084757
      2        7           0.000100750   -0.001573415    0.000843306
      3        7          -0.000290475    0.001775632   -0.000569878
      4        6           0.000139138   -0.000377716   -0.000733475
      5        7          -0.002809914    0.002049121   -0.000020310
      6       16          -0.000016441   -0.000171974    0.001189720
      7       16          -0.003182150   -0.004123798    0.000215286
      8        8           0.004858302   -0.001403639   -0.000229134
      9        8          -0.002484201    0.002932045   -0.000997923
     10        7           0.002727460    0.004911804    0.001850205
     11        1          -0.000693169   -0.001087734    0.000370110
     12        6          -0.000034670   -0.000227750    0.001266190
     13        1           0.000036009    0.000032423   -0.000241674
     14        1           0.000214193    0.000162762   -0.000410276
     15        1          -0.000020549    0.000103519   -0.000595854
     16        1          -0.000940924   -0.001071552    0.000302563
     17        6           0.004609095   -0.004127169    0.002917424
     18        6           0.000253743    0.000162072   -0.001003807
     19        8          -0.000667613    0.001493392   -0.003387633
     20        1          -0.000190609   -0.000039579    0.000128791
     21        1          -0.000097462    0.000067483    0.000126624
     22        1           0.000038026   -0.000088229    0.000064503
 -------------------------------------------------------------------
 Cartesian Forces:  Max     0.004911804 RMS     0.001727142

 GradGradGradGradGradGradGradGradGradGradGradGradGradGradGradGradGradGrad
 Berny optimization.
 Using GEDIIS/GDIIS optimizer.
 FormGI is forming the generalized inverse of G from B-inverse, IUseBI=4.
 Internal  Forces:  Max     0.005243236 RMS     0.001251693
 Search for a local minimum.
 Step number   2 out of a maximum of  108
 All quantities printed in internal units (Hartrees-Bohrs-Radians)
 Mixed Optimization -- RFO/linear search
 Update second derivatives using D2CorX and points    1    2
 DE= -1.51D-03 DEPred=-1.50D-03 R= 1.01D+00
 TightC=F SS=  1.41D+00  RLast= 1.66D-01 DXNew= 5.0454D-01 4.9931D-01
 Trust test= 1.01D+00 RLast= 1.66D-01 DXMaxT set to 4.99D-01
 ITU=  1  0
 Use linear search instead of GDIIS.
     Eigenvalues ---    0.00584   0.00786   0.00885   0.01087   0.01222
     Eigenvalues ---    0.01413   0.01857   0.01978   0.02035   0.02173
     Eigenvalues ---    0.02428   0.03009   0.04062   0.07399   0.07560
     Eigenvalues ---    0.07608   0.07884   0.10276   0.11525   0.13585
     Eigenvalues ---    0.15865   0.16000   0.16000   0.16000   0.16000
     Eigenvalues ---    0.16000   0.16000   0.16165   0.19246   0.24165
     Eigenvalues ---    0.24986   0.24994   0.24998   0.24999   0.25000
     Eigenvalues ---    0.25000   0.25000   0.27213   0.28417   0.28946
     Eigenvalues ---    0.30968   0.32441   0.34285   0.34299   0.34716
     Eigenvalues ---    0.34730   0.34797   0.35045   0.36826   0.41251
     Eigenvalues ---    0.43971   0.44213   0.49154   0.50381   0.54424
     Eigenvalues ---    0.67509   0.68787   0.83388   0.91201   0.93616
 RFO step:  Lambda=-5.72333627D-04 EMin= 5.83782158D-03
 Quartic linear search produced a step of  0.03462.
 Iteration  1 RMS(Cart)=  0.04570269 RMS(Int)=  0.00067963
 Iteration  2 RMS(Cart)=  0.00090575 RMS(Int)=  0.00004638
 Iteration  3 RMS(Cart)=  0.00000034 RMS(Int)=  0.00004638
 Variable       Old X    -DE/DX   Delta X   Delta X   Delta X     New X
                                 (Linear)    (Quad)   (Total)
    R1        2.42963  -0.00084   0.00007  -0.00100  -0.00093   2.42870
    R2        3.30239   0.00057   0.00043   0.00349   0.00392   3.30631
    R3        3.38065   0.00126   0.00037   0.00646   0.00683   3.38748
    R4        2.54435   0.00123   0.00012   0.00290   0.00302   2.54737
    R5        2.57231   0.00124   0.00017   0.00340   0.00356   2.57588
    R6        2.75245  -0.00003  -0.00029  -0.00144  -0.00173   2.75072
    R7        2.45020   0.00152  -0.00041   0.00050   0.00009   2.45029
    R8        3.33802   0.00116   0.00012   0.00480   0.00492   3.34294
    R9        2.61550   0.00479   0.00029   0.01138   0.01167   2.62717
   R10        2.73480  -0.00499  -0.00043  -0.00744  -0.00787   2.72693
   R11        2.74281  -0.00389  -0.00037  -0.00605  -0.00643   2.73639
   R12        3.11243   0.00386   0.00087   0.01284   0.01371   3.12615
   R13        1.92371  -0.00079  -0.00029  -0.00321  -0.00350   1.92020
   R14        1.92377  -0.00091  -0.00027  -0.00340  -0.00367   1.92010
   R15        2.05765  -0.00012   0.00005  -0.00013  -0.00008   2.05758
   R16        2.06208   0.00022   0.00003   0.00078   0.00080   2.06288
   R17        2.06224   0.00018   0.00004   0.00070   0.00074   2.06298
   R18        2.84070   0.00061   0.00031   0.00336   0.00367   2.84437
   R19        2.32177  -0.00354  -0.00056  -0.00671  -0.00726   2.31450
   R20        2.06800  -0.00011  -0.00002  -0.00041  -0.00043   2.06757
   R21        2.06770  -0.00005  -0.00002  -0.00023  -0.00025   2.06744
   R22        2.05906   0.00008  -0.00004   0.00008   0.00004   2.05910
    A1        2.04570  -0.00029   0.00016  -0.00121  -0.00107   2.04463
    A2        2.09849   0.00062   0.00001   0.00270   0.00269   2.10118
    A3        2.13819  -0.00034  -0.00016  -0.00200  -0.00218   2.13601
    A4        1.91491   0.00059  -0.00023   0.00137   0.00112   1.91603
    A5        2.05200  -0.00005   0.00019   0.00136   0.00150   2.05350
    A6        2.09417   0.00029   0.00007   0.00112   0.00117   2.09535
    A7        2.13699  -0.00024  -0.00026  -0.00256  -0.00283   2.13416
    A8        2.11968  -0.00126  -0.00019  -0.00637  -0.00654   2.11314
    A9        1.90028  -0.00090  -0.00002  -0.00304  -0.00309   1.89719
   A10        2.26311   0.00216   0.00020   0.00949   0.00970   2.27281
   A11        2.01916   0.00524  -0.00067   0.01855   0.01788   2.03703
   A12        1.51172   0.00065  -0.00010   0.00180   0.00168   1.51339
   A13        1.87829  -0.00022   0.00019  -0.00053  -0.00036   1.87793
   A14        1.82320  -0.00041  -0.00019  -0.00289  -0.00310   1.82009
   A15        1.85227   0.00110  -0.00122   0.00109  -0.00015   1.85212
   A16        2.17377  -0.00062   0.00189   0.00165   0.00354   2.17731
   A17        1.86011  -0.00002  -0.00051  -0.00106  -0.00157   1.85854
   A18        1.85477   0.00048  -0.00056   0.00181   0.00123   1.85600
   A19        1.97959  -0.00033   0.00016   0.00147   0.00158   1.98117
   A20        1.98329  -0.00049   0.00036   0.00130   0.00160   1.98489
   A21        1.97166   0.00100   0.00060   0.01355   0.01408   1.98574
   A22        1.86489   0.00030  -0.00018   0.00190   0.00172   1.86661
   A23        1.91005   0.00013  -0.00001   0.00019   0.00019   1.91024
   A24        1.90901   0.00050  -0.00001   0.00293   0.00291   1.91192
   A25        1.93372  -0.00012   0.00026   0.00088   0.00113   1.93485
   A26        1.93652  -0.00015   0.00036   0.00185   0.00220   1.93872
   A27        1.90902  -0.00061  -0.00042  -0.00746  -0.00787   1.90115
   A28        1.99975  -0.00149  -0.00019  -0.00694  -0.00736   1.99238
   A29        2.14694   0.00199   0.00002   0.00838   0.00817   2.15510
   A30        2.13647  -0.00050   0.00018  -0.00116  -0.00121   2.13526
   A31        1.91422  -0.00024   0.00009  -0.00124  -0.00114   1.91308
   A32        1.91466  -0.00017   0.00007  -0.00095  -0.00088   1.91378
   A33        1.91891  -0.00001  -0.00025  -0.00090  -0.00115   1.91777
   A34        1.87156   0.00010  -0.00016  -0.00073  -0.00090   1.87066
   A35        1.92172   0.00018   0.00013   0.00201   0.00214   1.92386
   A36        1.92223   0.00014   0.00013   0.00180   0.00193   1.92415
    D1        0.01240  -0.00021   0.00033  -0.00318  -0.00285   0.00955
    D2        3.11196  -0.00039   0.00068  -0.01642  -0.01575   3.09620
    D3       -0.00271   0.00001  -0.00011  -0.00580  -0.00591  -0.00862
    D4       -3.10124   0.00017  -0.00047   0.00764   0.00714  -3.09410
    D5        0.58253   0.00080  -0.00011   0.03828   0.03817   0.62070
    D6        2.92365  -0.00040   0.00220   0.03798   0.04018   2.96384
    D7       -1.40352   0.00040   0.00098   0.03922   0.04020  -1.36331
    D8       -2.60339   0.00061   0.00026   0.02435   0.02461  -2.57878
    D9       -0.26227  -0.00059   0.00258   0.02405   0.02662  -0.23565
   D10        1.69374   0.00021   0.00136   0.02529   0.02664   1.72039
   D11       -0.01934   0.00038  -0.00046   0.01443   0.01398  -0.00535
   D12        3.11532   0.00018  -0.00055   0.00169   0.00113   3.11645
   D13       -3.13908  -0.00023   0.00016  -0.01278  -0.01265   3.13146
   D14        0.01724  -0.00038   0.00038  -0.01856  -0.01816  -0.00092
   D15        0.00963  -0.00003   0.00025   0.00027   0.00049   0.01012
   D16       -3.11723  -0.00019   0.00047  -0.00551  -0.00503  -3.12225
   D17        0.01003   0.00004  -0.00002   0.00458   0.00455   0.01458
   D18       -2.08464  -0.00006  -0.00023   0.00231   0.00208  -2.08255
   D19        2.10747   0.00030   0.00029   0.00953   0.00982   2.11729
   D20       -3.13885  -0.00017  -0.00011  -0.00878  -0.00890   3.13544
   D21        1.04967  -0.00027  -0.00031  -0.01105  -0.01136   1.03831
   D22       -1.04141   0.00010   0.00020  -0.00383  -0.00362  -1.04503
   D23        3.12892   0.00053  -0.00032   0.01534   0.01502  -3.13925
   D24       -0.03079   0.00069  -0.00060   0.02229   0.02169  -0.00909
   D25       -0.00772   0.00020  -0.00015   0.01272   0.01256   0.00484
   D26       -3.13298   0.00006   0.00010   0.00650   0.00656  -3.12642
   D27        3.13519   0.00019  -0.00046  -0.00115  -0.00169   3.13350
   D28       -0.01444   0.00063  -0.00073   0.03820   0.03756   0.02312
   D29        1.15153   0.00034   0.00077   0.01129   0.01208   1.16361
   D30       -1.13180  -0.00032  -0.00057  -0.01096  -0.01154  -1.14334
   D31       -0.84699   0.00010   0.00139   0.01188   0.01328  -0.83371
   D32       -3.13032  -0.00057   0.00005  -0.01037  -0.01035  -3.14067
   D33        3.08545   0.00055  -0.00024   0.00927   0.00905   3.09450
   D34        0.80211  -0.00012  -0.00158  -0.01298  -0.01457   0.78754
   D35        1.02863   0.00016  -0.00020   0.01851   0.01828   1.04690
   D36       -1.02268   0.00029  -0.00010   0.02069   0.02056  -1.00212
   D37       -3.13908   0.00022  -0.00014   0.01964   0.01947  -3.11961
   D38       -2.10498  -0.00029   0.00007  -0.02063  -0.02052  -2.12551
   D39        2.12689  -0.00016   0.00018  -0.01845  -0.01824   2.10865
   D40        0.01050  -0.00022   0.00013  -0.01950  -0.01933  -0.00883
         Item               Value     Threshold  Converged?
 Maximum Force            0.005243     0.000450     NO 
 RMS     Force            0.001252     0.000300     NO 
 Maximum Displacement     0.162487     0.001800     NO 
 RMS     Displacement     0.045894     0.001200     NO 
 Predicted change in Energy=-2.923401D-04
 GradGradGradGradGradGradGradGradGradGradGradGradGradGradGradGradGradGrad

                          Input orientation:                          
 ---------------------------------------------------------------------
 Center     Atomic      Atomic             Coordinates (Angstroms)
 Number     Number       Type             X           Y           Z
 ---------------------------------------------------------------------
      1          6           0       -1.130692    0.577592   -0.712047
      2          7           0       -1.732945    1.506913   -1.364296
      3          7           0       -1.120399    1.703329   -2.548920
      4          6           0       -0.030494    0.935451   -2.832645
      5          7           0        0.602346    1.061230   -3.957348
      6         16           0        0.266421   -0.153317   -1.470361
      7         16           0       -1.670159    0.132304    0.938415
      8          8           0       -3.107286    0.257104    0.976175
      9          8           0       -0.938872   -1.081041    1.238111
     10          7           0       -1.071006    1.298150    1.947613
     11          1           0       -1.482805    2.214896    1.797565
     12          6           0       -1.641076    2.689765   -3.484154
     13          1           0       -2.508097    3.148544   -3.011575
     14          1           0       -1.922549    2.194612   -4.415419
     15          1           0       -0.870681    3.433306   -3.697247
     16          1           0       -0.056504    1.308911    2.003032
     17          6           0        1.699705    0.230465   -4.153289
     18          6           0        2.384101    0.416874   -5.480844
     19          8           0        2.066587   -0.607590   -3.338945
     20          1           0        2.742751    1.446878   -5.567682
     21          1           0        1.666469    0.255200   -6.290657
     22          1           0        3.216456   -0.280669   -5.569786
 ---------------------------------------------------------------------
                    Distance matrix (angstroms):
                    1          2          3          4          5
     1  C    0.000000
     2  N    1.285215   0.000000
     3  N    2.154412   1.348009   0.000000
     4  C    2.415664   2.319689   1.363095   0.000000
     5  N    3.710702   3.517974   2.315990   1.296636   0.000000
     6  S    1.749626   2.600977   2.556109   1.769009   2.788024
     7  S    1.792577   2.682531   3.864177   4.189802   5.476832
     8  O    2.619109   2.988083   4.297160   4.943067   6.224761
     9  O    2.567290   3.755074   4.703964   4.632758   5.827305
    10  N    2.756185   3.383857   4.515022   4.905617   6.142052
    11  H    3.017101   3.249796   4.391466   5.018468   6.228790
    12  C    3.522264   2.429275   1.455618   2.469019   2.812292
    13  H    3.714145   2.451396   2.056308   3.326907   3.863448
    14  H    4.117858   3.133405   2.090124   2.769572   2.805260
    15  H    4.139339   3.145974   2.091372   2.773577   2.804320
    16  H    3.010043   3.766771   4.691238   4.850146   6.001797
    17  C    4.469204   4.603357   3.563189   2.287946   1.390237
    18  C    5.926299   5.923194   4.746858   3.621070   2.431231
    19  O    4.304397   4.775647   4.015141   2.652369   2.304643
    20  H    6.271874   6.140351   4.909441   3.928470   2.706147
    21  H    6.248915   6.114887   4.885110   3.911557   2.688191
    22  H    6.575100   6.736332   5.645369   4.417418   3.351748
                    6          7          8          9         10
     6  S    0.000000
     7  S    3.103889   0.000000
     8  O    4.187587   1.443030   0.000000
     9  O    3.106320   1.448034   2.561496   0.000000
    10  N    3.946900   1.654286   2.484735   2.486243   0.000000
    11  H    4.398587   2.260626   2.673307   3.387042   1.016128
    12  C    3.972030   5.108872   5.287925   6.083737   5.636103
    13  H    4.579910   5.040067   4.962016   6.197717   5.484773
    14  H    4.356343   5.742852   5.850369   6.607566   6.482048
    15  H    4.372172   5.746751   6.077133   6.688927   6.038499
    16  H    3.782440   2.263117   3.386444   2.659990   1.016072
    17  C    3.065892   6.106641   7.029884   6.144048   6.785116
    18  C    4.570958   7.597690   8.477850   7.643969   8.239926
    19  O    2.634116   5.727698   6.792416   5.496033   6.436150
    20  H    5.047858   7.970645   8.857796   8.140242   8.428909
    21  H    5.036097   7.962894   8.694572   8.078100   8.743604
    22  H    5.052149   8.149002   9.117484   8.015910   8.796948
                   11         12         13         14         15
    11  H    0.000000
    12  C    5.305384   0.000000
    13  H    5.005072   1.088822   0.000000
    14  H    6.228559   1.091631   1.795447   0.000000
    15  H    5.661464   1.091682   1.797878   1.776671   0.000000
    16  H    1.702164   5.875954   5.877146   6.742633   6.137518
    17  C    7.034131   4.201990   5.246360   4.128839   4.131955
    18  C    8.435703   5.035360   6.123145   4.779405   4.782644
    19  O    6.851886   4.963909   5.928190   4.992428   5.008469
    20  H    8.525962   5.010369   6.082824   4.863316   4.527837
    21  H    8.898183   4.974276   6.045727   4.489865   4.823200
    22  H    9.087836   6.063741   7.146639   5.819704   5.831355
                   16         17         18         19         20
    16  H    0.000000
    17  C    6.492118   0.000000
    18  C    7.922164   1.505174   0.000000
    19  O    6.059472   1.224783   2.395428   0.000000
    20  H    8.072829   2.137314   1.094111   3.105689   0.000000
    21  H    8.536054   2.137770   1.094043   3.101146   1.761015
    22  H    8.401584   2.137348   1.089629   2.530955   1.791318
                   21         22
    21  H    0.000000
    22  H    1.791444   0.000000
 Stoichiometry    C5H8N4O3S2
 Framework group  C1[X(C5H8N4O3S2)]
 Deg. of freedom    60
 Full point group                 C1      NOp   1
 Largest Abelian subgroup         C1      NOp   1
 Largest concise Abelian subgroup C1      NOp   1
                         Standard orientation:                         
 ---------------------------------------------------------------------
 Center     Atomic      Atomic             Coordinates (Angstroms)
 Number     Number       Type             X           Y           Z
 ---------------------------------------------------------------------
      1          6           0       -1.033881    0.178462   -0.114458
      2          7           0       -0.731109    1.426717   -0.070141
      3          7           0        0.608101    1.569554   -0.013200
      4          6           0        1.365530    0.436295   -0.005918
      5          7           0        2.660067    0.496801    0.036262
      6         16           0        0.289165   -0.965788   -0.076565
      7         16           0       -2.750270   -0.338463   -0.125827
      8          8           0       -3.494206    0.635587   -0.887484
      9          8           0       -2.695102   -1.753941   -0.426129
     10          7           0       -3.277619   -0.214490    1.437246
     11          1           0       -3.315300    0.742165    1.777700
     12          6           0        1.198927    2.899614    0.012975
[...]
 984,0.00010144,-0.00015721,-0.00027011,0.00035858,-0.00030856,0.000137
 72,0.00058881,0.00011879,-0.00001242,-0.00012095,-0.04484365,0.0552470
 7,0.59235564,0.00001717,-0.00009896,-0.00024816,0.00090475,-0.00172283
 ,0.00196723,-0.01083919,0.00693737,0.00459958,0.00034613,0.00052454,-0
 .00110534,0.00022460,0.00032090,-0.00007648,0.00019191,0.00013080,0.00
 014475,-0.00008516,0.00012673,0.00010560,-0.00003867,-0.00003683,-0.00
 003058,0.00001278,-0.00001058,-0.00005223,0.00001413,-0.00013024,-0.00
 001708,0.00004874,0.00002434,-0.00001566,-0.19306387,0.09705220,0.1046
 8385,0.20444067,0.00019743,-0.00043618,0.00011879,0.00010006,0.0022224
 3,-0.00283947,0.02334583,-0.02125698,-0.01339046,-0.00062841,-0.001735
 64,0.00429141,0.00001346,0.00047739,-0.00004278,0.00043041,-0.00027298
 ,0.00016520,0.00019370,-0.00011020,-0.00001412,-0.00013079,0.00000690,
 -0.00001281,-0.00011618,0.00006265,-0.00003878,-0.00003535,0.00003176,
 -0.00000897,0.00000605,0.00000965,0.00008380,0.09081346,-0.11243997,-0
 .06751827,-0.10830242,0.12495251,-0.00062384,0.00055963,0.00002505,-0.
 00084224,0.00044887,0.00140573,-0.01971894,0.01573992,0.00892592,0.000
 82914,0.00193717,-0.00427834,0.00052297,-0.00076786,0.00061584,-0.0002
 8787,0.00072174,-0.00016856,-0.00003071,0.00024261,-0.00004620,-0.0000
 7286,-0.00010437,0.00001110,0.00007758,-0.00008570,0.00005063,0.000009
 40,-0.00012168,0.00004952,0.00004778,0.00004394,-0.00007772,0.11374613
 ,-0.07850956,-0.13324629,-0.11549859,0.07347222,0.13935873,-0.00052707
 ,0.00069536,-0.00080604,-0.00151372,-0.00127992,0.00173097,-0.00414635
 ,0.00345518,-0.00996816,0.00201793,-0.00050966,-0.00375550,-0.00032875
 ,-0.00100040,0.00150653,0.00070381,-0.00034937,0.00001999,0.00002678,0
 .00016894,0.00040653,0.00005439,0.00001311,-0.00012135,-0.00003469,0.0
 0000236,-0.00005489,0.00000056,-0.00006654,-0.00003365,0.00001097,0.00
 002281,-0.00001249,-0.08879330,-0.03894605,-0.08669803,0.01202352,0.00
 746577,0.02042908,0.08936512,-0.00017203,-0.00178214,0.00140041,0.0032
 4817,-0.00040004,0.00076644,0.01344951,0.00592341,0.03160621,-0.001117
 61,0.00150477,0.00295960,0.00074334,0.00007849,-0.00137916,-0.00097172
 ,-0.00010742,0.00026642,0.00019852,-0.00030399,-0.00095022,-0.00029595
 ,-0.00011376,0.00023966,0.00007936,0.00000735,0.00020980,-0.00005899,0
 .00015508,0.00012406,0.00002657,-0.00003571,0.00002192,-0.04194366,-0.
 09072395,-0.09670612,-0.00756237,-0.00500422,-0.01087199,0.04059623,0.
 09734934,0.00027466,0.00090257,-0.00102835,-0.00330282,0.00027167,-0.0
 0080805,-0.00657542,0.00303220,-0.01915576,0.00189283,-0.00146127,-0.0
 0156460,-0.00077924,0.00053340,0.00131332,0.00011991,-0.00007258,-0.00
 010797,-0.00027569,-0.00000346,0.00080939,0.00031806,0.00016886,-0.000
 17832,-0.00004647,0.00006016,-0.00020448,0.00008497,-0.00007588,-0.000
 14186,-0.00006169,0.00000968,0.00000353,-0.08823634,-0.08932193,-0.249
 05415,-0.00600188,-0.00493768,-0.01038987,0.09890672,0.08990447,0.2734
 0149,-0.00052759,0.00051848,-0.00078112,-0.00000623,0.00073752,0.00033
 406,0.01415716,0.01181872,-0.00327576,0.00130028,0.00066298,-0.0008265
 3,0.00016142,-0.00022614,0.00054738,-0.00004394,-0.00052594,-0.0005786
 8,-0.00033901,-0.00009909,0.00005336,0.00007613,0.00002153,0.00002862,
 0.00004471,0.00008437,-0.00011698,0.00004234,-0.00000796,-0.00000577,-
 0.00001445,-0.00000362,-0.00002722,-0.22314428,-0.13324182,0.04300264,
 -0.01426305,-0.01335183,0.00143801,-0.00900664,-0.00597558,0.00321105,
 0.23214111,0.00054981,-0.00127017,0.00168547,-0.00033404,-0.00245679,-
 0.00307823,-0.01235799,-0.02260490,0.01343415,-0.00406552,0.00082504,0
 .00426747,0.00085039,0.00046094,-0.00244881,-0.00033472,0.00083718,0.0
 0048773,0.00071964,0.00021330,-0.00068947,-0.00018077,-0.00007169,0.00
 010377,0.00001005,-0.00019484,0.00035677,-0.00013599,0.00013482,0.0001
 5544,0.00003108,-0.00002149,0.00002338,-0.12672200,-0.14647431,0.02903
 709,0.01268759,0.01334535,-0.00254251,-0.01005309,-0.00629806,0.001625
 48,0.13947221,0.16294437,-0.00039079,0.00017287,-0.00134034,0.00016088
 ,0.00352147,-0.00006410,0.01420197,0.01705763,-0.00912400,0.00148719,-
 0.00099506,-0.00008327,-0.00116806,0.00066771,0.00058566,-0.00004149,0
 .00002738,-0.00032477,-0.00055344,-0.00014326,0.00056071,0.00013373,0.
 00006884,-0.00007452,-0.00003086,0.00014152,-0.00032796,0.00012502,-0.
 00015453,-0.00016345,-0.00003124,0.00002420,0.00001165,0.03912109,0.02
 858496,-0.05842367,0.01163585,0.01075793,-0.00253108,-0.02205987,-0.01
 736763,0.00715640,-0.04296505,-0.04214895,0.06440952,-0.00100634,0.000
 57090,0.00013676,-0.00001943,0.00003389,0.00018155,-0.00004699,0.00021
 189,0.00032980,0.00001785,0.00004712,-0.00005453,-0.00015463,-0.000029
 71,0.00022839,0.00007972,-0.00023014,0.00022308,0.01260670,0.00560297,
 0.00342767,0.00221561,0.00530712,0.00198492,-0.00210818,-0.00006379,-0
 .00037183,-0.28327718,-0.17967609,-0.06866360,-0.01455078,-0.02229263,
 0.00044479,0.00001338,0.00004608,-0.00001932,0.00000149,0.00000613,-0.
 00001631,-0.00000534,-0.00001732,0.00001280,-0.00000236,-0.00000685,0.
 00002810,0.28622064,0.00091511,0.00095941,0.00091612,-0.00006233,0.000
 12618,-0.00042655,-0.00045490,-0.00006079,0.00042341,0.00018837,0.0000
 3995,-0.00017697,-0.00025387,-0.00005799,0.00031914,0.00026257,-0.0002
 3814,0.00001871,-0.02584981,-0.01499121,-0.00134063,0.00092582,-0.0045
 5612,-0.00400000,0.00258341,0.00313306,0.00140700,-0.18393754,-0.22096
 658,-0.06083021,0.01516314,0.01538353,0.00536863,-0.00009086,0.0001243
 9,-0.00006253,0.00004198,0.00002058,0.00000940,0.00000545,-0.00003679,
 0.00001740,-0.00000829,-0.00002640,0.00005338,0.19050815,0.22118072,0.
 00170830,-0.00023389,0.00032269,0.00015023,0.00086657,-0.00051639,-0.0
 0072561,0.00067080,0.00039462,0.00059637,-0.00028171,-0.00066136,-0.00
 083469,0.00021157,0.00087843,0.00019667,-0.00018754,0.00016892,-0.0092
 4590,-0.01854445,-0.00845129,-0.00045202,-0.00334134,0.00191639,-0.000
 87256,0.00252060,-0.00192667,-0.04431336,-0.03016019,-0.01908894,-0.00
 849279,-0.00975396,-0.00493805,-0.00007729,0.00018501,-0.00013199,-0.0
 0003842,0.00001789,-0.00005066,-0.00000266,-0.00000665,0.00004003,0.00
 000650,-0.00002666,0.00000856,0.06212001,0.05828874,0.03212590,0.00379
 088,-0.00428894,-0.00372489,-0.00093913,0.00723831,-0.00186240,0.01847
 609,-0.01237319,-0.00470305,-0.04945887,0.00981561,0.06522881,-0.14954
 624,0.07604960,0.02391277,0.00369512,0.00702402,-0.01620916,-0.0026505
 9,-0.00235574,0.00679084,0.00147348,0.00124716,-0.00154664,-0.00066676
 ,0.00114824,-0.00233870,0.00099569,-0.00052478,-0.00202474,-0.00043278
 ,0.00006286,0.00039056,-0.00151957,0.00378314,-0.00234773,0.00028637,-
 0.00010302,-0.00014697,0.00008068,-0.00043547,0.00050152,-0.00079648,-
 0.00001772,0.00057651,0.00013312,0.00018641,0.00063053,0.42635043,-0.0
 0772350,0.00709952,0.00381978,0.00582755,-0.00687453,0.00611382,-0.014
 81922,0.01646194,0.01079093,0.02591305,0.00258921,-0.06219686,0.064351
 01,-0.14810060,-0.00307833,-0.00700269,-0.00691921,0.02510488,0.001385
 46,0.00153029,-0.00663492,-0.00146893,-0.00151329,0.00166498,0.0008256
 2,-0.00108152,0.00197375,-0.00052454,0.00014353,0.00134323,0.00034867,
 -0.00007160,-0.00037998,0.00244859,-0.00403817,0.00234926,-0.00012691,
 0.00025865,0.00007380,0.00017369,-0.00037187,-0.00094805,0.00011683,0.
 00062585,-0.00060270,-0.00008004,-0.00010554,-0.00053698,-0.19182400,0
 .62069906,0.00310205,-0.00430994,0.00000056,0.00041730,0.00345053,-0.0
 0190731,-0.00074652,0.00630517,-0.00247578,0.03946223,-0.03153845,-0.0
 3080062,0.04257441,-0.02553056,-0.11299146,0.00553712,-0.00105152,-0.0
 0802088,0.00112645,0.00064354,-0.00314147,-0.00112646,-0.00070585,0.00
 072113,-0.00014331,-0.00016724,0.00099844,-0.00059060,0.00068019,0.001
 22594,0.00024557,-0.00004415,-0.00015320,-0.00031317,-0.00023255,0.001
 20845,-0.00006964,0.00001484,0.00030277,0.00035651,-0.00021348,-0.0000
 0601,-0.00027871,-0.00005384,-0.00010104,-0.00005004,-0.00009765,-0.00
 024876,-0.05174644,-0.24652182,0.72715866,-0.00075197,-0.00073549,-0.0
 0016558,-0.00044779,-0.00028855,-0.00031008,-0.00082595,0.00002102,0.0
 0135480,0.00039832,0.00433203,0.00188973,-0.01000839,0.00652182,0.0301
 9412,0.00056773,0.00115705,0.00139756,0.00016240,0.00012435,-0.0003604
 6,-0.00011655,-0.00010720,0.00008858,-0.00000528,-0.00006700,0.0001296
 2,-0.00003070,0.00002114,0.00007712,0.00002939,0.00000330,-0.00002893,
 0.00021087,-0.00003263,0.00019423,-0.00002897,0.00001445,0.00000434,-0
 .00000938,0.00003438,0.00000231,0.00003375,-0.00004268,-0.00004164,-0.
 00000682,-0.00000834,-0.00002784,-0.11393294,-0.00561736,0.05200511,0.
 57673858,-0.00077503,-0.00020053,-0.00067079,-0.00049432,-0.00037097,0
 .00018402,0.00043619,0.00051837,-0.00157776,0.00587854,-0.00076795,-0.
 00223756,0.01705710,0.00432232,-0.02118939,0.00225860,-0.00012047,-0.0
 0034041,0.00010778,0.00002038,-0.00013100,-0.00004631,-0.00002624,0.00
 001603,-0.00006334,0.00001145,0.00005150,-0.00001850,0.00004105,0.0000
 2410,0.00000751,0.00000059,0.00000326,0.00013449,0.00006371,0.00009313
 ,0.00000376,-0.00001569,-0.00001412,-0.00007359,0.00003328,-0.00000847
 ,0.00003407,0.00001543,-0.00000761,0.00000029,-0.00000173,-0.00001212,
 -0.00626763,-0.08583651,0.00285488,-0.04246973,0.59654740,-0.00018652,
 -0.00078420,-0.00003885,-0.00001464,-0.00009956,-0.00065491,0.00083773
 ,-0.00100780,-0.00001632,-0.00085270,0.00079679,0.00519168,0.01350332,
 -0.00129514,-0.01204244,-0.00031980,0.00166173,0.00024920,-0.00036262,
 -0.00017266,0.00088473,0.00023044,0.00012751,-0.00018575,-0.00002261,0
 .00007026,-0.00027894,0.00016038,-0.00012508,-0.00030906,-0.00006392,0
 .00001623,0.00005033,-0.00008038,0.00044074,-0.00024399,0.00001645,-0.
 00003268,-0.00000014,0.00001128,-0.00000162,0.00006412,-0.00000556,-0.
 00007633,0.00002645,0.00001143,0.00003176,0.00008208,0.05256092,0.0019
 7184,-0.19393554,0.01592410,0.00478216,0.50841878,0.00147801,0.0025347
 7,0.00382103,-0.00157939,-0.00057348,-0.00027244,-0.00257080,0.0023104
 4,0.00081249,0.00388211,0.00508591,-0.01765644,-0.01767648,0.05632828,
 -0.00444845,-0.00630668,-0.00252963,0.00078786,0.00079691,0.00177705,-
 0.00412240,-0.00087160,-0.00077397,0.00085403,0.00060380,-0.00057295,0
 .00125330,-0.00057979,0.00044339,0.00149331,0.00023764,-0.00006319,-0.
 00019856,-0.00004883,-0.00099893,0.00101012,-0.00019293,0.00004532,0.0
 0015586,0.00011597,0.00017719,-0.00001551,0.00019933,-0.00016360,-0.00
 020436,-0.00010523,-0.00010401,-0.00029600,-0.13320068,0.12752328,-0.0
 9417112,0.02059886,-0.00099195,0.00932600,0.13509424,0.00573477,-0.000
 08218,-0.00265221,-0.00322401,0.00289197,-0.00186679,0.00692977,-0.006
 01622,-0.00403370,-0.01493940,-0.00851884,0.03907572,0.07363254,-0.057
 20597,-0.00443126,0.00004777,-0.00213836,-0.00914679,-0.00084870,-0.00
 176534,0.00395282,0.00094377,0.00105586,-0.00091476,-0.00053274,0.0008
 1234,-0.00122464,0.00037764,-0.00010242,-0.00098879,-0.00021452,0.0000
 3333,0.00021090,-0.00075125,0.00142074,-0.00125522,0.00013028,-0.00010
 890,-0.00025070,-0.00038652,0.00014061,0.00029535,-0.00000150,0.000035
 78,0.00034542,0.00006056,0.00006780,0.00030494,0.11253527,-0.39106202,
 0.28851698,0.00903899,-0.00013746,0.02285963,-0.18536782,0.46003367,-0
 .00127669,0.00424762,0.00235718,0.00382865,-0.00682181,0.00121410,-0.0
 0642887,0.00462639,0.00455112,0.01364436,0.00167136,-0.02934020,-0.031
 43667,0.02798570,0.04241798,-0.00315561,-0.00448710,0.00488571,-0.0006
 5329,-0.00093659,0.00135232,0.00062475,0.00032870,-0.00008641,0.000268
 65,-0.00007298,-0.00033689,0.00041802,-0.00051824,-0.00090200,-0.00013
 890,0.00002159,0.00003107,0.00068635,-0.00081372,-0.00026971,-0.000013
 94,-0.00005944,0.00001820,0.00009337,0.00004291,-0.00016845,0.00023378
 ,-0.00006954,-0.00021786,0.00003684,0.00006860,0.00004749,-0.07057467,
 0.26007597,-0.35617593,-0.00659356,0.04191297,-0.02937414,0.09973575,-
 0.33001776,0.36809189,-0.00015978,0.00015711,-0.00009484,-0.00013415,-
 0.00010428,0.00022671,-0.00003607,0.00010902,-0.00014982,0.00039517,0.
 00034519,-0.00043996,0.00015460,0.00170832,0.00110466,0.00024569,-0.00
 008763,-0.00014632,0.00002805,-0.00001094,-0.00005692,-0.00001433,-0.0
 0000497,0.00001190,-0.00001119,0.00000477,0.00001056,-0.00001020,0.000
 01237,0.00001445,0.00000736,-0.00000165,-0.00000353,0.00003863,-0.0001
 5109,0.00011484,0.00000557,0.00002237,-0.00002144,-0.00004653,-0.00000
 703,-0.00000735,0.00000572,0.00005975,0.00004250,0.00000036,-0.0000026
 2,-0.00000343,-0.00510560,-0.01229786,-0.00305234,-0.09214821,-0.10089
 468,0.01317224,0.00015525,0.00045971,0.00128934,0.09463191,0.00005620,
 -0.00012324,-0.00001424,-0.00000850,0.00016154,-0.00006803,0.00022158,
 -0.00025727,-0.00002421,-0.00052095,0.00026289,0.00117024,0.00120499,0
 .00015056,-0.00125663,0.00002818,0.00007659,-0.00038516,-0.00005459,-0
 .00002812,0.00002641,0.00001458,0.00001092,-0.00000303,0.00000723,0.00
 001227,-0.00001252,0.00001175,0.00000420,-0.00000573,-0.00000326,0.000
 00005,0.00000070,-0.00002729,0.00007839,-0.00002733,0.00000011,-0.0000
 0479,0.00000562,0.00001594,-0.00001711,0.00001251,-0.00000219,-0.00000
 825,-0.00000434,-0.00000179,0.00000166,0.00000486,0.00051365,-0.003574
 95,0.00120625,-0.10190741,-0.27734971,0.01970736,-0.00130142,0.0009534
 7,0.00128995,0.11196111,0.29837381,0.00029048,-0.00001720,0.00018375,0
 .00025208,0.00009112,-0.00018377,-0.00007768,0.00004553,0.00016944,-0.
 00063071,-0.00064108,0.00009794,-0.00141497,-0.00197124,-0.00053029,-0
 .00070386,0.00010353,0.00011534,-0.00002512,-0.00001372,0.00010881,0.0
 0002336,0.00002261,-0.00002064,0.00000179,0.00000104,-0.00003373,0.000
 00562,-0.00001744,-0.00002300,-0.00000595,0.00000033,0.00000484,-0.000
 02779,0.00004268,-0.00005312,-0.00000343,-0.00001055,0.00000496,-0.000
 00099,-0.00002444,0.00001229,0.00001098,-0.00002153,0.00001173,0.00000
 558,0.00000342,0.00000429,0.01315223,0.03281477,0.00040151,0.01428368,
 0.02142254,-0.04501186,-0.00062292,-0.00143021,-0.00727231,-0.01206702
 ,-0.02342076,0.04992991,-0.00004840,0.00025933,-0.00000627,0.00007937,
 -0.00002940,0.00027507,-0.00013384,0.00023367,-0.00005049,0.00045360,-
 0.00013749,-0.00127606,-0.00154998,-0.00010446,0.00070127,-0.00004441,
 -0.00044697,0.00006161,0.00002478,0.00000550,-0.00011083,-0.00002047,-
 0.00001095,0.00002458,0.00001447,-0.00000516,0.00003130,-0.00001290,0.
 00000672,0.00002882,0.00000522,-0.00000125,-0.00000461,0.00004402,-0.0
 0009020,0.00005951,-0.00000341,0.00000583,-0.00001002,-0.00001168,0.00
 001175,-0.00000807,-0.00001245,0.00002822,-0.00001758,-0.00000313,-0.0
 0000284,-0.00000866,0.01281081,0.00311179,0.00932923,-0.19348369,-0.01
 200463,-0.13639167,-0.00138397,-0.00243112,0.00112533,-0.01007287,0.00
 006852,-0.00927811,0.20737663,0.00013973,-0.00006663,0.00004852,-0.000
 01366,0.00008235,-0.00013617,0.00013622,-0.00017469,0.00004708,-0.0003
 8591,-0.00010584,0.00055112,0.00101055,-0.00036407,-0.00093933,-0.0000
 3276,-0.00007329,-0.00011188,0.00000452,0.00003156,0.00002743,-0.00000
 527,-0.00000872,-0.00001173,0.00000086,-0.00000584,-0.00000387,-0.0000
 0041,-0.00000828,-0.00000254,-0.00000286,0.00000220,0.00000312,-0.0000
 6868,0.00009590,-0.00010480,0.00000449,-0.00000871,0.00002196,0.000062
 46,0.00001174,-0.00000714,-0.00001325,-0.00003217,-0.00002175,-0.00000
 040,0.00000066,0.00000170,0.00308861,-0.00127733,0.00504038,-0.0109373
 3,-0.04436182,-0.01560019,-0.00180539,-0.00092891,0.00164106,-0.022104
 58,-0.00185190,-0.02228998,0.01564334,0.04590121,-0.00006123,-0.000315
 04,0.00002397,0.00006715,-0.00009380,-0.00032741,-0.00020987,0.0000543
 6,0.00018486,0.00082762,0.00025503,0.00037223,0.00229634,0.00089763,0.
 00160825,-0.00023198,0.00040761,0.00052579,-0.00008015,-0.00004248,0.0
 0005390,0.00002617,0.00000476,0.00000345,0.00000934,0.00000096,-0.0000
 1886,0.00002830,-0.00000729,-0.00004359,-0.00000712,0.00000080,0.00000
 344,-0.00000951,0.00008337,-0.00007307,0.00000734,-0.00000594,0.000017
 78,0.00003965,-0.00001506,0.00000624,0.00000167,-0.00001609,0.00000136
 ,-0.00000025,0.00000407,0.00000831,-0.02764383,-0.00255450,-0.01985949
 ,-0.13807339,-0.01708066,-0.17609170,0.00488872,0.00241279,-0.00370294
 ,0.00304776,0.00010819,0.00289140,0.14961023,0.01437944,0.18925591,-0.
 00006914,0.00001503,0.00014283,-0.00003304,-0.00005648,0.00002539,-0.0
 0026621,0.00007654,0.00027678,0.00035033,0.00052033,-0.00022716,-0.000
 57978,0.00052544,0.00370855,-0.00018672,-0.00003547,0.00022579,0.00006
 240,0.00008800,-0.00021769,-0.00006179,-0.00005674,0.00004976,0.000017
 44,-0.00003584,0.00006832,-0.00002909,0.00001719,0.00006858,0.00001565
 ,-0.00000209,-0.00001394,0.00002836,-0.00006096,0.00004699,-0.00000257
 ,0.00000770,0.00000947,0.00002373,-0.00000729,-0.00001436,-0.00000546,
 0.00000622,-0.00000845,-0.00000245,-0.00000502,-0.00001738,-0.00984303
 ,0.00945951,-0.00186765,-0.18694323,0.13818137,0.03254613,0.00135426,-
 0.00119349,-0.00171300,0.01207063,-0.01027645,-0.00316725,-0.01402770,
 0.01527973,0.00546704,0.19812741,0.00003910,0.00001036,-0.00008047,-0.
 00005896,0.00000655,0.00000343,0.00003655,-0.00008945,-0.00001919,-0.0
 0019524,0.00051756,0.00056578,0.00049095,0.00099032,0.00054049,-0.0000
 2470,0.00001607,-0.00012544,-0.00003510,-0.00003779,0.00012593,0.00002
 701,0.00001954,-0.00002874,-0.00001223,0.00001381,-0.00004359,0.000019
 75,-0.00001681,-0.00004954,-0.00000879,0.00000096,0.00000777,-0.000000
 03,-0.00000261,0.00000711,0.00000604,0.00000638,-0.00000839,-0.0000121
 8,-0.00000900,0.00000273,-0.00000952,0.00002105,0.00002252,0.00000365,
 0.00000335,0.00001282,-0.00450238,0.00141908,0.00175427,0.14094520,-0.
 19238491,-0.03327075,-0.00097933,0.00062107,-0.00011564,0.02082760,-0.
 01687102,-0.00468940,-0.00411021,0.00314257,0.00152186,-0.15244721,0.2
 0262292,0.00007312,-0.00001111,-0.00013052,0.00004175,-0.00001496,-0.0
 0010182,0.00030840,-0.00003902,-0.00053967,0.00095863,-0.00079635,-0.0
 0001085,0.00385086,0.00035932,-0.00605095,0.00022251,-0.00012209,-0.00
 031293,-0.00003709,-0.00008723,0.00019368,0.00004199,0.00004474,-0.000
 04403,-0.00003194,0.00003727,-0.00006605,0.00002169,-0.00001147,-0.000
 06371,-0.00001317,0.00000366,0.00001219,-0.00004311,0.00010826,-0.0000
 8890,0.00001079,-0.00001012,0.00000262,0.00001299,-0.00000555,0.000001
 05,-0.00000667,-0.00000477,0.00000402,0.00000415,0.00000478,0.00001640
 ,0.02112452,-0.02464288,-0.00219995,0.02805617,-0.02807471,-0.05678375
 ,-0.00213028,0.00023831,0.00287978,-0.00299201,0.00168989,-0.00080748,
 -0.01408457,0.01746758,0.00516014,-0.03538874,0.03386644,0.05893073\\0
 .00001027,0.00001157,0.00000869,-0.00000553,-0.00000792,-0.00001398,0.
 00000198,0.00002222,0.00002323,0.00001379,-0.00000442,-0.00003138,-0.0
 0002178,0.00002970,0.00002195,-0.00000362,-0.00001443,0.00001435,-0.00
 006607,0.00005238,-0.00000219,-0.00000473,-0.00000641,0.00000981,0.000
 05060,-0.00001467,0.00001297,0.00001730,-0.00003433,-0.00003492,0.0000
 0663,0.00000057,0.00000534,0.00000324,-0.00000775,-0.00000965,0.000000
 04,0.00000383,0.00000214,-0.00000330,-0.00000007,0.00000204,-0.0000016
 6,-0.00000068,-0.00000097,-0.00000653,0.00000064,0.00000406,0.00002638
 ,-0.00005676,0.00000486,0.00000493,0.00001095,0.00001165,-0.00001175,0
 .00002277,-0.00001919,-0.00000665,-0.00000068,-0.00000480,-0.00000276,
 -0.00000657,-0.00000071,-0.00000078,0.00000010,-0.00000330\\\@
 The archive entry for this job was punched.


 IF YOU WISH TO UNDERSTAND THE FRAGRANCE OF THE ROSE, 
 OR THE TENACITY OF THE OAK; 
 IF YOU ARE NOT SATISFIED UNTIL YOU KNOW THE SECRET PATHS 
 BY WHICH THE SUNSHINE AND THE AIR ACHIEVE THESE WONDERS; 
 IF YOU WISH TO SEE THE PATTERN WHICH UNDERLIES ONE LARGE FIELD OF 
 HUMAN EXPERIENCE AND HUMAN MEASUREMENT, THEN TAKE UP CHEMISTRY.

                                         -- C. A. COULSON, 1973.
 Job cpu time:       0 days  1 hours 13 minutes  0.2 seconds.
 Elapsed time:       0 days  0 hours  4 minutes 36.6 seconds.
 File lengths (MBytes):  RWF=    222 Int=      0 D2E=      0 Chk=      8 Scr=      1
 Normal termination of Gaussian 16 at Sat May 21 13:10:58 2022.
