 Entering Gaussian System, Link 0=g16
 AtFile(1): /home/561/yj5695/Basis/6-31pGd.gbs
 Initial command:
 /apps/gaussian/g16c01/g16/l1.exe "/jobfs/40781015.gadi-pbs/Gau-3292488.inp" -scrdir="/jobfs/40781015.gadi-pbs/"
 Entering Link 1 = /apps/gaussian/g16c01/g16/l1.exe PID=   3292489.
  
 Copyright (c) 1988-2019, Gaussian, Inc.  All Rights Reserved.
  
 This is part of the Gaussian(R) 16 program.  It is based on
 the Gaussian(R) 09 system (copyright 2009, Gaussian, Inc.),
 the Gaussian(R) 03 system (copyright 2003, Gaussian, Inc.),
 the Gaussian(R) 98 system (copyright 1998, Gaussian, Inc.),
 the Gaussian(R) 94 system (copyright 1995, Gaussian, Inc.),
 the Gaussian 92(TM) system (copyright 1992, Gaussian, Inc.),
 the Gaussian 90(TM) system (copyright 1990, Gaussian, Inc.),
 the Gaussian 88(TM) system (copyright 1988, Gaussian, Inc.),
 the Gaussian 86(TM) system (copyright 1986, Carnegie Mellon
 University), and the Gaussian 82(TM) system (copyright 1983,
 Carnegie Mellon University). Gaussian is a federally registered
 trademark of Gaussian, Inc.
  
 This software contains proprietary and confidential information,
 including trade secrets, belonging to Gaussian, Inc.
  
 This software is provided under written license and may be
 used, copied, transmitted, or stored only in accord with that
 written license.
  
 The following legend is applicable only to US Government
 contracts under FAR:
  
                    RESTRICTED RIGHTS LEGEND
  
 Use, reproduction and disclosure by the US Government is
 subject to restrictions as set forth in subparagraphs (a)
 and (c) of the Commercial Computer Software - Restricted
 Rights clause in FAR 52.227-19.
  
 Gaussian, Inc.
 340 Quinnipiac St., Bldg. 40, Wallingford CT 06492
  
  
 ---------------------------------------------------------------
 Warning -- This program may not be used in any manner that
 competes with the business of Gaussian, Inc. or will provide
 assistance to any competitor of Gaussian, Inc.  The licensee
 of this program is prohibited from giving any competitor of
 Gaussian, Inc. access to this program.  By using this program,
 the user acknowledges that Gaussian, Inc. is engaged in the
 business of creating and licensing software in the field of
 computational chemistry and represents and warrants to the
 licensee that it is not a competitor of Gaussian, Inc. and that
 it will not use this program in any manner prohibited above.
 ---------------------------------------------------------------
  

 Cite this work as:
 Gaussian 16, Revision C.01,
 M. J. Frisch, G. W. Trucks, H. B. Schlegel, G. E. Scuseria, 
 M. A. Robb, J. R. Cheeseman, G. Scalmani, V. Barone, 
 G. A. Petersson, H. Nakatsuji, X. Li, M. Caricato, A. V. Marenich, 
 J. Bloino, B. G. Janesko, R. Gomperts, B. Mennucci, H. P. Hratchian, 
 J. V. Ortiz, A. F. Izmaylov, J. L. Sonnenberg, D. Williams-Young, 
 F. Ding, F. Lipparini, F. Egidi, J. Goings, B. Peng, A. Petrone, 
 T. Henderson, D. Ranasinghe, V. G. Zakrzewski, J. Gao, N. Rega, 
 G. Zheng, W. Liang, M. Hada, M. Ehara, K. Toyota, R. Fukuda, 
 J. Hasegawa, M. Ishida, T. Nakajima, Y. Honda, O. Kitao, H. Nakai, 
 T. Vreven, K. Throssell, J. A. Montgomery, Jr., J. E. Peralta, 
 F. Ogliaro, M. J. Bearpark, J. J. Heyd, E. N. Brothers, K. N. Kudin, 
 V. N. Staroverov, T. A. Keith, R. Kobayashi, J. Normand, 
 K. Raghavachari, A. P. Rendell, J. C. Burant, S. S. Iyengar, 
 J. Tomasi, M. Cossi, J. M. Millam, M. Klene, C. Adamo, R. Cammi, 
 J. W. Ochterski, R. L. Martin, K. Morokuma, O. Farkas, 
 J. B. Foresman, and D. J. Fox, Gaussian, Inc., Wallingford CT, 2019.
 
 ******************************************
 Gaussian 16:  ES64L-G16RevC.01  3-Jul-2019
                20-May-2022 
 ******************************************
 %nproc=16
 Will use up to   16 processors via shared memory.
 %mem=20gb
 --------------------------------------------------
 #M062X/gen 6D INT(grid=ultrafine) OPT Freq=noraman
 --------------------------------------------------
 1/18=20,19=15,26=4,38=1/1,3;
 2/9=110,12=2,17=6,18=5,40=1/2;
 3/5=7,8=2,11=2,25=1,30=1,71=1,74=-55,75=-5/1,2,3;
 4//1;
 5/5=2,38=5/2;
 6/7=2,8=2,9=2,10=2,28=1/1;
 7//1,2,3,16;
 1/18=20,19=15,26=4/3(2);
 2/9=110/2;
 99//99;
 2/9=110/2;
 3/5=7,6=1,8=2,11=2,25=1,30=1,71=1,74=-55,75=-5,82=7/1,2,3;
 4/5=5,16=3,69=1/1;
 5/5=2,38=5/2;
 7//1,2,3,16;
 1/18=20,19=15,26=4/3(-5);
 2/9=110/2;
 6/7=2,8=2,9=2,10=2,19=2,28=1/1;
 99/9=1/99;
 --------------
 HA.25.a3d3.freq
 --------------
 Symbolic Z-matrix:
 Charge =  0 Multiplicity = 1
 C                     1.05287   0.25439  -0.24614 
 C                    -1.25821   0.59603  -0.25106 
 N                    -2.61301   0.68239  -0.08217 
 S                    -0.21056  -0.31255   0.79226 
 S                     2.75641  -0.22003  -0.03172 
 O                     3.57364   0.95232  -0.30283 
 O                     2.80103  -0.88519   1.2647 
 N                     3.12443  -1.33789  -1.16607 
 H                     3.09199  -0.96451  -2.11721 
 C                    -3.30832   0.05941   0.93113 
 O                    -2.71196  -0.63767   1.74558 
 C                    -4.77954   0.32772   0.96941 
 N                     0.68286   1.01209  -1.22403 
 N                    -0.65712   1.22067  -1.23638 
 H                    -3.11544   1.2567   -0.75707 
 H                     2.57287  -2.19385  -1.0752 
 H                    -4.94798   1.21575   1.58855 
 H                    -5.28349  -0.52215   1.43087 
 H                    -5.18521   0.51563  -0.02686 
 

 GradGradGradGradGradGradGradGradGradGradGradGradGradGradGradGradGradGrad
 Berny optimization.
 Initialization pass.
                           ----------------------------
                           !    Initial Parameters    !
                           ! (Angstroms and Degrees)  !
 --------------------------                            --------------------------
 ! Name  Definition              Value          Derivative Info.                !
 --------------------------------------------------------------------------------
 ! R1    R(1,4)                  1.7309         estimate D2E/DX2                !
 ! R2    R(1,5)                  1.7813         estimate D2E/DX2                !
 ! R3    R(1,13)                 1.2912         estimate D2E/DX2                !
 ! R4    R(2,3)                  1.368          estimate D2E/DX2                !
 ! R5    R(2,4)                  1.7354         estimate D2E/DX2                !
 ! R6    R(2,14)                 1.3124         estimate D2E/DX2                !
 ! R7    R(3,10)                 1.3778         estimate D2E/DX2                !
 ! R8    R(3,15)                 1.0187         estimate D2E/DX2                !
 ! R9    R(5,6)                  1.4546         estimate D2E/DX2                !
 ! R10   R(5,7)                  1.4578         estimate D2E/DX2                !
 ! R11   R(5,8)                  1.6346         estimate D2E/DX2                !
 ! R12   R(8,9)                  1.0223         estimate D2E/DX2                !
 ! R13   R(8,16)                 1.0223         estimate D2E/DX2                !
 ! R14   R(10,11)                1.2267         estimate D2E/DX2                !
 ! R15   R(10,12)                1.496          estimate D2E/DX2                !
 ! R16   R(12,17)                1.0956         estimate D2E/DX2                !
 ! R17   R(12,18)                1.0905         estimate D2E/DX2                !
 ! R18   R(12,19)                1.092          estimate D2E/DX2                !
 ! R19   R(13,14)                1.3562         estimate D2E/DX2                !
 ! A1    A(4,1,5)              122.5892         estimate D2E/DX2                !
 ! A2    A(4,1,13)             115.9369         estimate D2E/DX2                !
 ! A3    A(5,1,13)             121.4321         estimate D2E/DX2                !
 ! A4    A(3,2,4)              123.8273         estimate D2E/DX2                !
 ! A5    A(3,2,14)             121.0804         estimate D2E/DX2                !
 ! A6    A(4,2,14)             115.0912         estimate D2E/DX2                !
 ! A7    A(2,3,10)             124.1968         estimate D2E/DX2                !
 ! A8    A(2,3,15)             116.2467         estimate D2E/DX2                !
 ! A9    A(10,3,15)            119.5541         estimate D2E/DX2                !
 ! A10   A(1,4,2)               84.7498         estimate D2E/DX2                !
 ! A11   A(1,5,6)              107.4706         estimate D2E/DX2                !
 ! A12   A(1,5,7)              104.9423         estimate D2E/DX2                !
 ! A13   A(1,5,8)              108.2956         estimate D2E/DX2                !
 ! A14   A(6,5,7)              121.0848         estimate D2E/DX2                !
 ! A15   A(6,5,8)              107.1786         estimate D2E/DX2                !
 ! A16   A(7,5,8)              107.351          estimate D2E/DX2                !
 ! A17   A(5,8,9)              112.876          estimate D2E/DX2                !
 ! A18   A(5,8,16)             112.9194         estimate D2E/DX2                !
 ! A19   A(9,8,16)             111.8007         estimate D2E/DX2                !
 ! A20   A(3,10,11)            119.9914         estimate D2E/DX2                !
 ! A21   A(3,10,12)            115.7237         estimate D2E/DX2                !
 ! A22   A(11,10,12)           124.2645         estimate D2E/DX2                !
 ! A23   A(10,12,17)           108.1216         estimate D2E/DX2                !
 ! A24   A(10,12,18)           108.9979         estimate D2E/DX2                !
 ! A25   A(10,12,19)           111.8923         estimate D2E/DX2                !
 ! A26   A(17,12,18)           108.7543         estimate D2E/DX2                !
 ! A27   A(17,12,19)           108.6021         estimate D2E/DX2                !
 ! A28   A(18,12,19)           110.3957         estimate D2E/DX2                !
 ! A29   A(1,13,14)            112.351          estimate D2E/DX2                !
 ! A30   A(2,14,13)            111.8705         estimate D2E/DX2                !
 ! D1    D(5,1,4,2)           -177.8506         estimate D2E/DX2                !
 ! D2    D(13,1,4,2)            -0.1738         estimate D2E/DX2                !
 ! D3    D(4,1,5,6)           -140.9584         estimate D2E/DX2                !
 ! D4    D(4,1,5,7)            -10.8518         estimate D2E/DX2                !
 ! D5    D(4,1,5,8)            103.5625         estimate D2E/DX2                !
 ! D6    D(13,1,5,6)            41.4902         estimate D2E/DX2                !
 ! D7    D(13,1,5,7)           171.5967         estimate D2E/DX2                !
 ! D8    D(13,1,5,8)           -73.989          estimate D2E/DX2                !
 ! D9    D(4,1,13,14)            0.2732         estimate D2E/DX2                !
 ! D10   D(5,1,13,14)          177.9792         estimate D2E/DX2                !
 ! D11   D(4,2,3,10)            -0.115          estimate D2E/DX2                !
 ! D12   D(4,2,3,15)           179.3221         estimate D2E/DX2                !
 ! D13   D(14,2,3,10)         -179.6985         estimate D2E/DX2                !
 ! D14   D(14,2,3,15)           -0.2614         estimate D2E/DX2                !
 ! D15   D(3,2,4,1)           -179.5767         estimate D2E/DX2                !
 ! D16   D(14,2,4,1)             0.0295         estimate D2E/DX2                !
 ! D17   D(3,2,14,13)          179.7272         estimate D2E/DX2                !
 ! D18   D(4,2,14,13)            0.1093         estimate D2E/DX2                !
 ! D19   D(2,3,10,11)           -0.8253         estimate D2E/DX2                !
 ! D20   D(2,3,10,12)          177.6023         estimate D2E/DX2                !
 ! D21   D(15,3,10,11)         179.7551         estimate D2E/DX2                !
 ! D22   D(15,3,10,12)          -1.8173         estimate D2E/DX2                !
 ! D23   D(1,5,8,9)             65.5804         estimate D2E/DX2                !
 ! D24   D(1,5,8,16)           -62.4463         estimate D2E/DX2                !
 ! D25   D(6,5,8,9)            -50.0891         estimate D2E/DX2                !
 ! D26   D(6,5,8,16)          -178.1158         estimate D2E/DX2                !
 ! D27   D(7,5,8,9)            178.3996         estimate D2E/DX2                !
 ! D28   D(7,5,8,16)            50.3729         estimate D2E/DX2                !
 ! D29   D(3,10,12,17)         -89.4453         estimate D2E/DX2                !
 ! D30   D(3,10,12,18)         152.4911         estimate D2E/DX2                !
 ! D31   D(3,10,12,19)          30.1083         estimate D2E/DX2                !
 ! D32   D(11,10,12,17)         88.9068         estimate D2E/DX2                !
 ! D33   D(11,10,12,18)        -29.1568         estimate D2E/DX2                !
 ! D34   D(11,10,12,19)       -151.5396         estimate D2E/DX2                !
 ! D35   D(1,13,14,2)           -0.2401         estimate D2E/DX2                !
 --------------------------------------------------------------------------------
 Trust Radius=3.00D-01 FncErr=1.00D-07 GrdErr=1.00D-06 EigMax=2.50D+02 EigMin=1.00D-04
 Number of steps in this run=     94 maximum allowed number of steps=    114.
 GradGradGradGradGradGradGradGradGradGradGradGradGradGradGradGradGradGrad

                          Input orientation:                          
 ---------------------------------------------------------------------
 Center     Atomic      Atomic             Coordinates (Angstroms)
 Number     Number       Type             X           Y           Z
 ---------------------------------------------------------------------
      1          6           0        1.052866    0.254391   -0.246142
      2          6           0       -1.258214    0.596029   -0.251057
      3          7           0       -2.613006    0.682385   -0.082165
      4         16           0       -0.210562   -0.312548    0.792261
      5         16           0        2.756408   -0.220027   -0.031718
      6          8           0        3.573642    0.952319   -0.302828
      7          8           0        2.801034   -0.885186    1.264704
      8          7           0        3.124429   -1.337888   -1.166072
      9          1           0        3.091987   -0.964507   -2.117208
     10          6           0       -3.308323    0.059410    0.931129
     11          8           0       -2.711964   -0.637667    1.745580
     12          6           0       -4.779540    0.327715    0.969410
     13          7           0        0.682860    1.012088   -1.224026
     14          7           0       -0.657120    1.220667   -1.236375
     15          1           0       -3.115442    1.256695   -0.757073
     16          1           0        2.572866   -2.193848   -1.075195
     17          1           0       -4.947980    1.215754    1.588555
     18          1           0       -5.283490   -0.522153    1.430866
     19          1           0       -5.185207    0.515625   -0.026864
 ---------------------------------------------------------------------
                    Distance matrix (angstroms):
                    1          2          3          4          5
     1  C    0.000000
     2  C    2.336201   0.000000
     3  N    3.694413   1.368007   0.000000
     4  S    1.730882   1.735396   2.743401   0.000000
     5  S    1.781322   4.102591   5.444952   3.080652   0.000000
     6  O    2.616224   4.845251   6.196465   4.137549   1.454568
     7  O    2.576312   4.579196   5.795099   3.101747   1.457785
     8  N    2.770018   4.876972   6.178553   4.001070   1.634568
     9  H    3.024007   4.984180   6.276990   4.449370   2.239672
    10  C    4.521499   2.426617   1.377799   3.123101   6.147042
    11  O    4.351628   2.760788   2.256763   2.696577   5.765093
    12  C    5.958179   3.736478   2.434229   4.617020   7.621863
    13  N    1.291227   2.210778   3.503610   2.572601   2.690597
    14  N    2.199615   1.312379   2.333975   2.581769   3.896021
    15  H    4.317460   2.035148   1.018712   3.647093   6.097990
    16  H    2.998600   4.810384   6.012661   3.843716   2.240201
    17  H    6.348267   4.169245   2.920256   5.041123   8.002772
    18  H    6.600363   4.503559   3.297221   5.117260   8.177433
    19  H    6.247390   3.934209   2.578194   5.109200   7.975617
                    6          7          8          9         10
     6  O    0.000000
     7  O    2.535844   0.000000
     8  N    2.488379   2.493631   0.000000
     9  H    2.682943   3.395331   1.022313   0.000000
    10  C    7.048502   6.190944   6.908762   7.162732   0.000000
    11  O    6.799476   5.539463   6.559840   6.979527   1.226740
    12  C    8.472566   7.682671   8.355073   8.553244   1.495972
    13  N    3.034601   3.778901   3.389249   3.241697   4.634849
    14  N    4.340838   4.759081   4.566318   4.427941   3.616002
    15  H    6.711396   6.609080   6.770165   6.731708   2.078635
    16  H    3.390644   2.690684   1.022324   1.693091   6.609909
    17  H    8.732971   8.035301   8.903530   9.117417   2.111354
    18  H    9.144865   8.094377   8.837569   9.106763   2.118782
    19  H    8.774070   8.210388   8.589724   8.664426   2.156056
                   11         12         13         14         15
    11  O    0.000000
    12  C    2.410244   0.000000
    13  N    4.802611   5.925988   0.000000
    14  N    4.070361   4.759957   1.356173   0.000000
    15  H    3.164597   2.571569   3.834707   2.504870   0.000000
    16  H    6.189337   8.037199   3.724553   4.702947   6.660653
    17  H    2.908538   1.095593   6.297495   5.137289   2.976885
    18  H    2.593287   1.090498   6.708180   5.617375   3.556939
    19  H    3.254009   1.091988   6.009482   4.739575   2.316531
                   16         17         18         19
    16  H    0.000000
    17  H    8.676640   0.000000
    18  H    8.414110   1.777007   0.000000
    19  H    8.284198   1.776523   1.792100   0.000000
 Stoichiometry    C4H6N4O3S2
 Framework group  C1[X(C4H6N4O3S2)]
 Deg. of freedom    51
 Full point group                 C1      NOp   1
 Largest Abelian subgroup         C1      NOp   1
 Largest concise Abelian subgroup C1      NOp   1
                         Standard orientation:                         
 ---------------------------------------------------------------------
 Center     Atomic      Atomic             Coordinates (Angstroms)
 Number     Number       Type             X           Y           Z
 ---------------------------------------------------------------------
      1          6           0       -0.983738    0.355208   -0.090918
      2          6           0        1.317196    0.748862    0.001663
      3          7           0        2.684307    0.774677    0.043903
      4         16           0        0.380043   -0.710291   -0.063280
      5         16           0       -2.663682   -0.236894   -0.108562
      6          8           0       -3.421746    0.626744   -1.000322
      7          8           0       -2.554958   -1.668715   -0.359969
      8          7           0       -3.288950   -0.051232    1.390231
      9          1           0       -3.377729    0.929417    1.665131
     10          6           0        3.480471   -0.349801    0.042343
     11          8           0        2.967909   -1.464028    0.016463
     12          6           0        4.955586   -0.100941    0.036570
     13          7           0       -0.715079    1.617548   -0.051078
     14          7           0        0.618327    1.859680   -0.000045
     15          1           0        3.116923    1.696618    0.069264
     16          1           0       -2.796684   -0.600837    2.097873
     17          1           0        5.286069   -0.035599   -1.005944
     18          1           0        5.459533   -0.943076    0.511999
     19          1           0        5.213138    0.831739    0.542746
 ---------------------------------------------------------------------
 Rotational constants (GHZ):           1.8956136           0.3218850           0.2925291
 General basis read from cards:  (6D, 7F)
 There are   267 symmetry adapted cartesian basis functions of A   symmetry.
 There are   267 symmetry adapted basis functions of A   symmetry.
   267 basis functions,   488 primitive gaussians,   267 cartesian basis functions
    57 alpha electrons       57 beta electrons
       nuclear repulsion energy      1064.9017518028 Hartrees.
 NAtoms=   19 NActive=   19 NUniq=   19 SFac= 1.00D+00 NAtFMM=   60 NAOKFM=F Big=F
 Integral buffers will be    131072 words long.
 Raffenetti 2 integral format.
 Two-electron integral symmetry is turned on.
 One-electron integrals computed using PRISM.
 NBasis=   267 RedAO= T EigKep=  1.27D-05  NBF=   267
 NBsUse=   267 1.00D-06 EigRej= -1.00D+00 NBFU=   267
 ExpMin= 4.05D-02 ExpMax= 2.19D+04 ExpMxC= 3.30D+03 IAcc=3 IRadAn=         5 AccDes= 0.00D+00
 Harris functional with IExCor= 1009 and IRadAn=       5 diagonalized for initial guess.
 HarFok:  IExCor= 1009 AccDes= 0.00D+00 IRadAn=         5 IDoV= 1 UseB2=F ITyADJ=14
 ICtDFT=  3500011 ScaDFX=  1.000000  1.000000  1.000000  1.000000
 FoFCou: FMM=F IPFlag=           0 FMFlag=      100000 FMFlg1=           0
         NFxFlg=           0 DoJE=T BraDBF=F KetDBF=T FulRan=T
         wScrn=  0.000000 ICntrl=       500 IOpCl=  0 I1Cent=   200000004 NGrid=           0
         NMat0=    1 NMatS0=      1 NMatT0=    0 NMatD0=    1 NMtDS0=    0 NMtDT0=    0
 Petite list used in FoFCou.
 Requested convergence on RMS density matrix=1.00D-08 within 128 cycles.
 Requested convergence on MAX density matrix=1.00D-06.
 Requested convergence on             energy=1.00D-06.
 No special actions if energy rises.
 SCF Done:  E(RM062X) =  -1396.71937325     A.U. after   15 cycles
            NFock= 15  Conv=0.72D-08     -V/T= 2.0054

 **********************************************************************

            Population analysis using the SCF Density.

 **********************************************************************

 Orbital symmetries:
       Occupied  (A) (A) (A) (A) (A) (A) (A) (A) (A) (A) (A) (A)
                 (A) (A) (A) (A) (A) (A) (A) (A) (A) (A) (A) (A)
                 (A) (A) (A) (A) (A) (A) (A) (A) (A) (A) (A) (A)
                 (A) (A) (A) (A) (A) (A) (A) (A) (A) (A) (A) (A)
                 (A) (A) (A) (A) (A) (A) (A) (A) (A)
       Virtual   (A) (A) (A) (A) (A) (A) (A) (A) (A) (A) (A) (A)
                 (A) (A) (A) (A) (A) (A) (A) (A) (A) (A) (A) (A)
                 (A) (A) (A) (A) (A) (A) (A) (A) (A) (A) (A) (A)
                 (A) (A) (A) (A) (A) (A) (A) (A) (A) (A) (A) (A)
                 (A) (A) (A) (A) (A) (A) (A) (A) (A) (A) (A) (A)
                 (A) (A) (A) (A) (A) (A) (A) (A) (A) (A) (A) (A)
                 (A) (A) (A) (A) (A) (A) (A) (A) (A) (A) (A) (A)
                 (A) (A) (A) (A) (A) (A) (A) (A) (A) (A) (A) (A)
                 (A) (A) (A) (A) (A) (A) (A) (A) (A) (A) (A) (A)
                 (A) (A) (A) (A) (A) (A) (A) (A) (A) (A) (A) (A)
                 (A) (A) (A) (A) (A) (A) (A) (A) (A) (A) (A) (A)
                 (A) (A) (A) (A) (A) (A) (A) (A) (A) (A) (A) (A)
                 (A) (A) (A) (A) (A) (A) (A) (A) (A) (A) (A) (A)
                 (A) (A) (A) (A) (A) (A) (A) (A) (A) (A) (A) (A)
                 (A) (A) (A) (A) (A) (A) (A) (A) (A) (A) (A) (A)
                 (A) (A) (A) (A) (A) (A) (A) (A) (A) (A) (A) (A)
                 (A) (A) (A) (A) (A) (A) (A) (A) (A) (A) (A) (A)
                 (A) (A) (A) (A) (A) (A)
 The electronic state is 1-A.
 Alpha  occ. eigenvalues --  -90.18721 -90.00904 -19.66791 -19.65662 -19.65432
 Alpha  occ. eigenvalues --  -14.85851 -14.83405 -14.82399 -14.82252 -10.71042
 Alpha  occ. eigenvalues --  -10.69468 -10.65340 -10.59252  -8.49600  -8.35230
 Alpha  occ. eigenvalues --   -6.41817  -6.41745  -6.41729  -6.27187  -6.26981
 Alpha  occ. eigenvalues --   -6.26728  -1.26078  -1.21921  -1.18677  -1.14150
 Alpha  occ. eigenvalues --   -1.10263  -1.05106  -0.96083  -0.94135  -0.88266
 Alpha  occ. eigenvalues --   -0.80299  -0.75523  -0.72045  -0.69348  -0.66414
 Alpha  occ. eigenvalues --   -0.63723  -0.60379  -0.59547  -0.58602  -0.57402
 Alpha  occ. eigenvalues --   -0.54847  -0.53689  -0.53103  -0.52297  -0.51023
 Alpha  occ. eigenvalues --   -0.49017  -0.43898  -0.43589  -0.42712  -0.41266
 Alpha  occ. eigenvalues --   -0.40699  -0.39358  -0.38891  -0.37887  -0.37681
 Alpha  occ. eigenvalues --   -0.36187  -0.32993
 Alpha virt. eigenvalues --   -0.04098  -0.01343   0.00109   0.00396   0.02072
 Alpha virt. eigenvalues --    0.02908   0.03060   0.03658   0.04637   0.05119
 Alpha virt. eigenvalues --    0.05574   0.05780   0.06331   0.06895   0.07299
 Alpha virt. eigenvalues --    0.07770   0.08287   0.08755   0.09676   0.09964
 Alpha virt. eigenvalues --    0.10336   0.11752   0.11996   0.12284   0.13475
 Alpha virt. eigenvalues --    0.13972   0.14399   0.14758   0.15957   0.16357
 Alpha virt. eigenvalues --    0.17484   0.17844   0.18262   0.18914   0.19595
 Alpha virt. eigenvalues --    0.20276   0.20695   0.21219   0.21778   0.22379
 Alpha virt. eigenvalues --    0.22643   0.23303   0.24081   0.24833   0.25326
 Alpha virt. eigenvalues --    0.25699   0.26135   0.26942   0.27039   0.28005
 Alpha virt. eigenvalues --    0.29483   0.29863   0.30136   0.30875   0.31360
 Alpha virt. eigenvalues --    0.32309   0.32930   0.33422   0.33992   0.35380
 Alpha virt. eigenvalues --    0.36208   0.36402   0.36846   0.37763   0.38691
 Alpha virt. eigenvalues --    0.39149   0.40752   0.41352   0.42105   0.43365
 Alpha virt. eigenvalues --    0.44508   0.46263   0.49955   0.50930   0.51774
 Alpha virt. eigenvalues --    0.55014   0.58060   0.58892   0.61143   0.62681
 Alpha virt. eigenvalues --    0.64940   0.65776   0.67918   0.68897   0.69491
 Alpha virt. eigenvalues --    0.70960   0.72803   0.73404   0.74860   0.76162
 Alpha virt. eigenvalues --    0.77833   0.83307   0.85360   0.87780   0.89305
 Alpha virt. eigenvalues --    0.91114   0.92376   0.95048   0.97376   0.98644
 Alpha virt. eigenvalues --    0.99340   0.99609   1.00760   1.01936   1.03204
 Alpha virt. eigenvalues --    1.03849   1.04083   1.05490   1.07548   1.08449
 Alpha virt. eigenvalues --    1.09476   1.10185   1.12323   1.12481   1.13065
 Alpha virt. eigenvalues --    1.13513   1.14289   1.17094   1.17889   1.19102
 Alpha virt. eigenvalues --    1.23445   1.25644   1.27541   1.28878   1.30029
 Alpha virt. eigenvalues --    1.32810   1.33193   1.34550   1.36217   1.37635
 Alpha virt. eigenvalues --    1.38616   1.38977   1.39778   1.41382   1.42183
 Alpha virt. eigenvalues --    1.43274   1.45702   1.46346   1.49916   1.50346
 Alpha virt. eigenvalues --    1.51653   1.57380   1.59568   1.63342   1.65983
 Alpha virt. eigenvalues --    1.71712   1.72887   1.75076   1.75794   1.77578
 Alpha virt. eigenvalues --    1.79465   1.82271   1.83733   1.84084   1.86449
 Alpha virt. eigenvalues --    1.87578   1.89174   1.92014   1.93384   1.93891
 Alpha virt. eigenvalues --    1.96238   2.00535   2.01162   2.02660   2.09021
 Alpha virt. eigenvalues --    2.10881   2.12916   2.14471   2.15857   2.17120
 Alpha virt. eigenvalues --    2.23391   2.25839   2.26814   2.30960   2.32308
 Alpha virt. eigenvalues --    2.35291   2.36387   2.37547   2.40282   2.43395
 Alpha virt. eigenvalues --    2.44741   2.46333   2.47945   2.49077   2.56514
 Alpha virt. eigenvalues --    2.56991   2.67214   2.77451   2.79231   2.82478
 Alpha virt. eigenvalues --    2.90571   2.93987   2.94721   3.05469   3.09573
 Alpha virt. eigenvalues --    3.16149   3.24283   3.86028   3.97148   4.03735
 Alpha virt. eigenvalues --    4.09623   4.16561   4.19560   4.21774   4.27196
 Alpha virt. eigenvalues --    4.31453   4.34583   4.42005   4.44209   4.58969
          Condensed to atoms (all electrons):
               1          2          3          4          5          6
     1  C   11.181263  -2.150967   0.059074  -2.103247  -0.123587  -0.106083
     2  C   -2.150967   8.968168   0.195952   0.299353  -0.867091  -0.009908
     3  N    0.059074   0.195952   7.598483  -0.195734   0.013493  -0.000302
     4  S   -2.103247   0.299353  -0.195734  18.173697  -1.083487   0.021531
     5  S   -0.123587  -0.867091   0.013493  -1.083487  16.528013   0.322923
     6  O   -0.106083  -0.009908  -0.000302   0.021531   0.322923   8.647861
     7  O   -0.016200   0.011706  -0.000711   0.077616   0.117393  -0.191568
     8  N   -0.151357   0.029782  -0.000612   0.228678  -0.522961  -0.171993
     9  H   -0.017181  -0.000072   0.000011  -0.004454   0.055077  -0.002031
    10  C   -0.145685  -0.322580   0.066548   0.081426  -0.021320   0.002598
    11  O    0.042607  -0.032995  -0.148629  -0.024821  -0.002229  -0.000052
    12  C    0.171133  -0.048168  -0.236470  -0.266277   0.007911   0.000374
    13  N   -0.773466   0.960401  -0.051134   0.248603  -0.283688   0.007774
    14  N    0.838454  -0.534178  -0.029705  -0.333219   0.213230  -0.036763
    15  H    0.013840  -0.004775   0.241727  -0.012556   0.000652   0.000001
    16  H   -0.012302  -0.009714  -0.000018  -0.024027   0.085039   0.009058
    17  H   -0.000634  -0.010705  -0.000163   0.002487  -0.000005  -0.000000
    18  H    0.000161  -0.001174   0.006243  -0.001781   0.000001   0.000000
    19  H    0.000296   0.020778   0.013875  -0.000410   0.000010  -0.000000
               7          8          9         10         11         12
     1  C   -0.016200  -0.151357  -0.017181  -0.145685   0.042607   0.171133
     2  C    0.011706   0.029782  -0.000072  -0.322580  -0.032995  -0.048168
     3  N   -0.000711  -0.000612   0.000011   0.066548  -0.148629  -0.236470
     4  S    0.077616   0.228678  -0.004454   0.081426  -0.024821  -0.266277
     5  S    0.117393  -0.522961   0.055077  -0.021320  -0.002229   0.007911
     6  O   -0.191568  -0.171993  -0.002031   0.002598  -0.000052   0.000374
     7  O    8.714605  -0.143402   0.009568   0.001419   0.000145   0.000140
     8  N   -0.143402   8.183249   0.217242   0.004207   0.000111   0.000307
     9  H    0.009568   0.217242   0.306811  -0.000101  -0.000000  -0.000005
    10  C    0.001419   0.004207  -0.000101   6.497862   0.440953  -1.104349
    11  O    0.000145   0.000111  -0.000000   0.440953   8.200183  -0.007969
    12  C    0.000140   0.000307  -0.000005  -1.104349  -0.007969   7.230854
    13  N    0.012456  -0.086133   0.004008   0.020574  -0.002865  -0.016223
    14  N   -0.012350   0.097583  -0.002865  -0.004068   0.009286   0.042107
    15  H    0.000000   0.000002  -0.000000  -0.052113   0.005430   0.043107
    16  H   -0.005130   0.227217  -0.020324   0.000027  -0.000003   0.000012
    17  H   -0.000000   0.000000  -0.000000   0.009716  -0.003750   0.344808
    18  H    0.000000   0.000000   0.000000  -0.104851  -0.004568   0.457823
    19  H   -0.000000  -0.000000   0.000000  -0.088375   0.005667   0.388803
              13         14         15         16         17         18
     1  C   -0.773466   0.838454   0.013840  -0.012302  -0.000634   0.000161
     2  C    0.960401  -0.534178  -0.004775  -0.009714  -0.010705  -0.001174
     3  N   -0.051134  -0.029705   0.241727  -0.000018  -0.000163   0.006243
     4  S    0.248603  -0.333219  -0.012556  -0.024027   0.002487  -0.001781
     5  S   -0.283688   0.213230   0.000652   0.085039  -0.000005   0.000001
     6  O    0.007774  -0.036763   0.000001   0.009058  -0.000000   0.000000
     7  O    0.012456  -0.012350   0.000000  -0.005130  -0.000000   0.000000
     8  N   -0.086133   0.097583   0.000002   0.227217   0.000000   0.000000
     9  H    0.004008  -0.002865  -0.000000  -0.020324  -0.000000   0.000000
    10  C    0.020574  -0.004068  -0.052113   0.000027   0.009716  -0.104851
    11  O   -0.002865   0.009286   0.005430  -0.000003  -0.003750  -0.004568
    12  C   -0.016223   0.042107   0.043107   0.000012   0.344808   0.457823
    13  N    7.672688  -0.656591  -0.001300  -0.001419   0.000067   0.000002
    14  N   -0.656591   7.465919   0.017222  -0.002755   0.000126   0.000044
    15  H   -0.001300   0.017222   0.278191   0.000000   0.000082  -0.000005
    16  H   -0.001419  -0.002755   0.000000   0.311971  -0.000000   0.000000
    17  H    0.000067   0.000126   0.000082  -0.000000   0.431191  -0.016386
    18  H    0.000002   0.000044  -0.000005   0.000000  -0.016386   0.418368
    19  H   -0.000128  -0.000093   0.000924   0.000000  -0.024295  -0.021078
              19
     1  C    0.000296
     2  C    0.020778
     3  N    0.013875
     4  S   -0.000410
     5  S    0.000010
     6  O   -0.000000
     7  O   -0.000000
     8  N   -0.000000
     9  H    0.000000
    10  C   -0.088375
    11  O    0.005667
    12  C    0.388803
    13  N   -0.000128
    14  N   -0.000093
    15  H    0.000924
    16  H    0.000000
    17  H   -0.024295
    18  H   -0.021078
    19  H    0.477995
 Mulliken charges:
               1
     1  C   -0.706119
     2  C   -0.493813
     3  N   -0.531928
     4  S    0.916623
     5  S    1.560628
     6  O   -0.493420
     7  O   -0.575686
     8  N   -0.911919
     9  H    0.454316
    10  C    0.718114
    11  O   -0.476499
    12  C   -1.007917
    13  N   -0.053626
    14  N   -0.071385
    15  H    0.469571
    16  H    0.442368
    17  H    0.267463
    18  H    0.267199
    19  H    0.226030
 Sum of Mulliken charges =  -0.00000
 Mulliken charges with hydrogens summed into heavy atoms:
               1
     1  C   -0.706119
     2  C   -0.493813
     3  N   -0.062357
     4  S    0.916623
     5  S    1.560628
     6  O   -0.493420
     7  O   -0.575686
     8  N   -0.015235
    10  C    0.718114
    11  O   -0.476499
    12  C   -0.247225
    13  N   -0.053626
    14  N   -0.071385
 Electronic spatial extent (au):  <R**2>=           3607.3119
 Charge=              0.0000 electrons
 Dipole moment (field-independent basis, Debye):
    X=              7.0410    Y=              1.8468    Z=              4.0663  Tot=              8.3379
 Quadrupole moment (field-independent basis, Debye-Ang):
   XX=            -77.2480   YY=           -101.9877   ZZ=            -84.3238
   XY=              5.7293   XZ=            -12.6328   YZ=              1.0126
 Traceless Quadrupole moment (field-independent basis, Debye-Ang):
   XX=             10.6051   YY=            -14.1345   ZZ=              3.5294
   XY=              5.7293   XZ=            -12.6328   YZ=              1.0126
 Octapole moment (field-independent basis, Debye-Ang**2):
  XXX=            163.9301  YYY=             -6.0879  ZZZ=             13.2564  XYY=              4.1675
  XXY=             38.9426  XXZ=             35.4186  XZZ=            -11.8696  YZZ=             -3.8722
  YYZ=              6.6837  XYZ=             -5.8835
 Hexadecapole moment (field-independent basis, Debye-Ang**3):
 XXXX=          -3480.5269 YYYY=           -656.0274 ZZZZ=           -197.8310 XXXY=             35.3500
 XXXZ=            -94.1715 YYYX=             11.6447 YYYZ=              0.2314 ZZZX=            -45.0108
 ZZZY=             -0.8485 XXYY=           -763.3353 XXZZ=           -645.5626 YYZZ=           -133.0735
 XXYZ=             27.0551 YYXZ=            -13.1333 ZZXY=             -3.4270
 N-N= 1.064901751803D+03 E-N=-5.422067035186D+03  KE= 1.389238382988D+03
 Calling FoFJK, ICntrl=      2127 FMM=F ISym2X=0 I1Cent= 0 IOpClX= 0 NMat=1 NMatS=1 NMatT=0.
 ***** Axes restored to original set *****
 -------------------------------------------------------------------
 Center     Atomic                   Forces (Hartrees/Bohr)
 Number     Number              X              Y              Z
 -------------------------------------------------------------------
      1        6          -0.002308370   -0.000423892   -0.003257038
      2        6           0.013006709    0.000552941   -0.003368006
      3        7          -0.011197688    0.004906549   -0.004516639
      4       16          -0.000172017   -0.001103934    0.002848574
      5       16           0.016629189    0.021327980    0.023848237
      6        8          -0.008204343   -0.010887446   -0.002804648
      7        8          -0.004858231   -0.001376588   -0.009852735
      8        7          -0.005167024   -0.009815129   -0.012695415
      9        1           0.001281289    0.000086568    0.003419922
     10        6           0.014141508   -0.013034949    0.013328715
     11        8          -0.010280435    0.008484739   -0.009574324
     12        6          -0.002974725    0.001971649    0.000547335
     13        7          -0.002386065   -0.000287508   -0.002059402
     14        7          -0.002871878   -0.001237513    0.002394212
     15        1           0.004680372   -0.001314114    0.001260783
     16        1           0.003391075    0.002415518    0.000781811
     17        1          -0.001220288   -0.000553674   -0.000007942
     18        1           0.000082394    0.000541873   -0.000276563
     19        1          -0.001571471   -0.000253070   -0.000016879
 -------------------------------------------------------------------
 Cartesian Forces:  Max     0.023848237 RMS     0.007485060

 GradGradGradGradGradGradGradGradGradGradGradGradGradGradGradGradGradGrad
 Berny optimization.
 FormGI is forming the generalized inverse of G from B-inverse, IUseBI=4.
 Internal  Forces:  Max     0.016176371 RMS     0.003652023
 Search for a local minimum.
 Step number   1 out of a maximum of   94
 All quantities printed in internal units (Hartrees-Bohrs-Radians)
 Mixed Optimization -- RFO/linear search
 Second derivative matrix not updated -- first step.
 ITU=  0
     Eigenvalues ---    0.00617   0.00819   0.01229   0.01262   0.01914
     Eigenvalues ---    0.01985   0.02032   0.02048   0.02115   0.02162
     Eigenvalues ---    0.02556   0.04413   0.07286   0.07747   0.09679
     Eigenvalues ---    0.10714   0.14077   0.16000   0.16000   0.16000
     Eigenvalues ---    0.16000   0.16000   0.16000   0.19730   0.22000
     Eigenvalues ---    0.24986   0.24991   0.24994   0.25000   0.25000
     Eigenvalues ---    0.25000   0.25000   0.27645   0.31333   0.31871
     Eigenvalues ---    0.32804   0.34174   0.34584   0.34755   0.43969
     Eigenvalues ---    0.43971   0.44544   0.45075   0.49507   0.51361
     Eigenvalues ---    0.52027   0.60038   0.67349   0.92458   0.92546
     Eigenvalues ---    0.93929
 RFO step:  Lambda=-3.72627749D-03 EMin= 6.17380571D-03
 Linear search not attempted -- first point.
 Iteration  1 RMS(Cart)=  0.05813509 RMS(Int)=  0.00110694
 Iteration  2 RMS(Cart)=  0.00205717 RMS(Int)=  0.00014770
 Iteration  3 RMS(Cart)=  0.00000219 RMS(Int)=  0.00014769
 Iteration  4 RMS(Cart)=  0.00000000 RMS(Int)=  0.00014769
 Variable       Old X    -DE/DX   Delta X   Delta X   Delta X     New X
                                 (Linear)    (Quad)   (Total)
    R1        3.27089   0.00174   0.00000   0.00618   0.00618   3.27707
    R2        3.36621   0.00280   0.00000   0.00999   0.00999   3.37620
    R3        2.44006   0.00102   0.00000   0.00175   0.00174   2.44180
    R4        2.58516   0.00840   0.00000   0.01624   0.01624   2.60140
    R5        3.27942   0.00066   0.00000   0.00169   0.00170   3.28113
    R6        2.48004  -0.00409   0.00000  -0.00684  -0.00683   2.47321
    R7        2.60366   0.00514   0.00000   0.01031   0.01031   2.61397
    R8        1.92509  -0.00388   0.00000  -0.00865  -0.00865   1.91644
    R9        2.74873  -0.01286   0.00000  -0.01364  -0.01364   2.73509
   R10        2.75481  -0.00828   0.00000  -0.00891  -0.00891   2.74590
   R11        3.08889   0.01078   0.00000   0.02373   0.02373   3.11261
   R12        1.93189  -0.00319   0.00000  -0.00720  -0.00720   1.92469
   R13        1.93191  -0.00378   0.00000  -0.00853  -0.00853   1.92338
   R14        2.31820  -0.01618   0.00000  -0.01743  -0.01743   2.30078
   R15        2.82698   0.00590   0.00000   0.01780   0.01780   2.84477
   R16        2.07037  -0.00027   0.00000  -0.00077  -0.00077   2.06960
   R17        2.06074  -0.00058   0.00000  -0.00165  -0.00165   2.05910
   R18        2.06356   0.00056   0.00000   0.00159   0.00159   2.06515
   R19        2.56279  -0.00192   0.00000  -0.00378  -0.00378   2.55901
    A1        2.13959  -0.00154   0.00000  -0.00699  -0.00698   2.13260
    A2        2.02348   0.00044   0.00000   0.00346   0.00343   2.02691
    A3        2.11939   0.00110   0.00000   0.00344   0.00345   2.12284
    A4        2.16119   0.00348   0.00000   0.01441   0.01441   2.17560
    A5        2.11325  -0.00588   0.00000  -0.02248  -0.02249   2.09076
    A6        2.00872   0.00241   0.00000   0.00805   0.00805   2.01677
    A7        2.16764   0.00356   0.00000   0.01592   0.01592   2.18356
    A8        2.02889  -0.00484   0.00000  -0.02664  -0.02664   2.00225
    A9        2.08661   0.00127   0.00000   0.01068   0.01068   2.09729
   A10        1.47916  -0.00239   0.00000  -0.00795  -0.00796   1.47121
   A11        1.87572   0.00202   0.00000   0.00904   0.00852   1.88423
   A12        1.83159  -0.00074   0.00000  -0.00840  -0.00914   1.82245
   A13        1.89012  -0.00587   0.00000  -0.03910  -0.03961   1.85050
   A14        2.11333   0.00552   0.00000   0.05417   0.05415   2.16748
   A15        1.87062  -0.00140   0.00000  -0.01216  -0.01226   1.85836
   A16        1.87363  -0.00084   0.00000  -0.01338  -0.01390   1.85973
   A17        1.97006  -0.00114   0.00000  -0.00162  -0.00170   1.96835
   A18        1.97082   0.00084   0.00000   0.01050   0.01041   1.98122
   A19        1.95129   0.00121   0.00000   0.01597   0.01583   1.96712
   A20        2.09425   0.00371   0.00000   0.01464   0.01464   2.10888
   A21        2.01976  -0.00101   0.00000  -0.00396  -0.00396   2.01580
   A22        2.16882  -0.00270   0.00000  -0.01063  -0.01063   2.15819
   A23        1.88708   0.00163   0.00000   0.01116   0.01109   1.89817
   A24        1.90237  -0.00056   0.00000  -0.00544  -0.00542   1.89695
   A25        1.95289   0.00184   0.00000   0.01212   0.01206   1.96495
   A26        1.89812  -0.00090   0.00000  -0.00742  -0.00741   1.89071
   A27        1.89546  -0.00100   0.00000  -0.00208  -0.00220   1.89326
   A28        1.92677  -0.00104   0.00000  -0.00843  -0.00841   1.91836
   A29        1.96090  -0.00068   0.00000  -0.00220  -0.00223   1.95866
   A30        1.95251   0.00022   0.00000  -0.00141  -0.00142   1.95109
    D1       -3.10408  -0.00025   0.00000  -0.00876  -0.00874  -3.11282
    D2       -0.00303  -0.00026   0.00000  -0.01120  -0.01119  -0.01422
    D3       -2.46019  -0.00291   0.00000   0.04683   0.04677  -2.41342
    D4       -0.18940   0.00457   0.00000   0.11285   0.11273  -0.07667
    D5        1.80751   0.00066   0.00000   0.07617   0.07635   1.88386
    D6        0.72414  -0.00287   0.00000   0.04943   0.04937   0.77351
    D7        2.99493   0.00461   0.00000   0.11545   0.11533   3.11025
    D8       -1.29135   0.00069   0.00000   0.07877   0.07895  -1.21241
    D9        0.00477   0.00032   0.00000   0.01266   0.01267   0.01744
   D10        3.10632   0.00024   0.00000   0.00998   0.00998   3.11630
   D11       -0.00201  -0.00030   0.00000  -0.01179  -0.01181  -0.01381
   D12        3.12976  -0.00039   0.00000  -0.01623  -0.01620   3.11356
   D13       -3.13633  -0.00021   0.00000  -0.00801  -0.00804   3.13881
   D14       -0.00456  -0.00030   0.00000  -0.01245  -0.01243  -0.01700
   D15       -3.13420   0.00026   0.00000   0.01082   0.01087  -3.12334
   D16        0.00051   0.00014   0.00000   0.00713   0.00713   0.00764
   D17        3.13683  -0.00008   0.00000  -0.00544  -0.00541   3.13142
   D18        0.00191  -0.00001   0.00000  -0.00201  -0.00202  -0.00011
   D19       -0.01440  -0.00021   0.00000  -0.01019  -0.01022  -0.02462
   D20        3.09974  -0.00025   0.00000  -0.00873  -0.00875   3.09100
   D21        3.13732  -0.00008   0.00000  -0.00542  -0.00541   3.13191
   D22       -0.03172  -0.00012   0.00000  -0.00397  -0.00394  -0.03566
   D23        1.14459   0.00151   0.00000   0.01654   0.01654   1.16113
   D24       -1.08989   0.00008   0.00000  -0.01333  -0.01340  -1.10329
   D25       -0.87422   0.00282   0.00000   0.03189   0.03167  -0.84255
   D26       -3.10871   0.00139   0.00000   0.00201   0.00174  -3.10697
   D27        3.11366  -0.00256   0.00000  -0.01843  -0.01812   3.09554
   D28        0.87917  -0.00399   0.00000  -0.04830  -0.04806   0.83112
   D29       -1.56112  -0.00047   0.00000  -0.00434  -0.00439  -1.56551
   D30        2.66147  -0.00001   0.00000   0.00123   0.00124   2.66271
   D31        0.52549   0.00047   0.00000   0.00764   0.00770   0.53319
   D32        1.55172  -0.00040   0.00000  -0.00236  -0.00242   1.54929
   D33       -0.50888   0.00006   0.00000   0.00321   0.00321  -0.50568
   D34       -2.64486   0.00054   0.00000   0.00962   0.00967  -2.63520
   D35       -0.00419  -0.00019   0.00000  -0.00664  -0.00663  -0.01082
         Item               Value     Threshold  Converged?
 Maximum Force            0.016176     0.000450     NO 
 RMS     Force            0.003652     0.000300     NO 
 Maximum Displacement     0.180831     0.001800     NO 
 RMS     Displacement     0.058395     0.001200     NO 
 Predicted change in Energy=-1.966344D-03
 GradGradGradGradGradGradGradGradGradGradGradGradGradGradGradGradGradGrad

                          Input orientation:                          
 ---------------------------------------------------------------------
 Center     Atomic      Atomic             Coordinates (Angstroms)
 Number     Number       Type             X           Y           Z
 ---------------------------------------------------------------------
      1          6           0        1.065279    0.231091   -0.238411
      2          6           0       -1.242875    0.540416   -0.234288
      3          7           0       -2.606002    0.640096   -0.070054
      4         16           0       -0.179614   -0.318251    0.836644
      5         16           0        2.782192   -0.206675   -0.009210
      6          8           0        3.581574    0.971885   -0.267680
      7          8           0        2.802625   -0.949367    1.239549
      8          7           0        3.139811   -1.284564   -1.202221
      9          1           0        3.109066   -0.868815   -2.131500
     10          6           0       -3.327880    0.061115    0.958083
     11          8           0       -2.775140   -0.621321    1.801358
     12          6           0       -4.802062    0.365927    0.966503
     13          7           0        0.674958    0.937525   -1.247491
     14          7           0       -0.665507    1.129680   -1.250300
     15          1           0       -3.077926    1.199769   -0.771856
     16          1           0        2.607075   -2.149655   -1.140994
     17          1           0       -4.970723    1.273195    1.556291
     18          1           0       -5.326316   -0.458650    1.448706
     19          1           0       -5.203292    0.525856   -0.037349
 ---------------------------------------------------------------------
                    Distance matrix (angstroms):
                    1          2          3          4          5
     1  C    0.000000
     2  C    2.328792   0.000000
     3  N    3.697828   1.376599   0.000000
     4  S    1.734150   1.736297   2.761863   0.000000
     5  S    1.786606   4.099996   5.454664   3.082241   0.000000
     6  O    2.623237   4.843819   6.199616   4.126804   1.447350
     7  O    2.568311   4.556064   5.787461   3.074799   1.453069
     8  N    2.744053   4.845140   6.164453   4.013641   1.647123
     9  H    2.995103   4.952245   6.260061   4.464125   2.247085
    10  C    4.556351   2.449230   1.383255   3.173365   6.191958
    11  O    4.431261   2.800236   2.263175   2.785548   5.859524
    12  C    5.991301   3.760341   2.443829   4.674612   7.668168
    13  N    1.292146   2.205076   3.498503   2.578931   2.698698
    14  N    2.197044   1.308765   2.323401   2.586103   3.900356
    15  H    4.288245   2.022657   1.014136   3.645802   6.074594
    16  H    2.976532   4.783379   6.008810   3.876948   2.255387
    17  H    6.382809   4.199999   2.938999   5.099541   8.046645
    18  H    6.646396   4.528255   3.303631   5.184870   8.242385
    19  H    6.278717   3.965338   2.600007   5.168532   8.019061
                    6          7          8          9         10
     6  O    0.000000
     7  O    2.563144   0.000000
     8  N    2.481952   2.487628   0.000000
     9  H    2.661816   3.385907   1.018504   0.000000
    10  C    7.076196   6.219597   6.950453   7.200317   0.000000
    11  O    6.872192   5.615577   6.666935   7.081842   1.217518
    12  C    8.495631   7.722424   8.396478   8.585345   1.505389
    13  N    3.067511   3.777923   3.318920   3.157407   4.653532
    14  N    4.362126   4.748656   4.506810   4.360951   3.620361
    15  H    6.682444   6.576125   6.709499   6.663823   2.086073
    16  H    3.384721   2.673185   1.017810   1.695183   6.672130
    17  H    8.749825   8.091047   8.940485   9.136246   2.127421
    18  H    9.183839   8.146425   8.909818   9.172882   2.122407
    19  H    8.799197   8.240235   8.616375   8.684807   2.173486
                   11         12         13         14         15
    11  O    0.000000
    12  C    2.404175   0.000000
    13  N    4.860931   5.935170   0.000000
    14  N    4.102336   4.754852   1.354171   0.000000
    15  H    3.166935   2.586471   3.791984   2.460403   0.000000
    16  H    6.321509   8.103395   3.643501   4.634197   6.608642
    17  H    2.910297   1.095185   6.312494   5.141247   3.001389
    18  H    2.580567   1.089627   6.725628   5.615207   3.568824
    19  H    3.254655   1.092831   6.015625   4.735752   2.347518
                   16         17         18         19
    16  H    0.000000
    17  H    8.741525   0.000000
    18  H    8.514971   1.771244   0.000000
    19  H    8.329359   1.775469   1.786825   0.000000
 Stoichiometry    C4H6N4O3S2
 Framework group  C1[X(C4H6N4O3S2)]
 Deg. of freedom    51
 Full point group                 C1      NOp   1
 Largest Abelian subgroup         C1      NOp   1
 Largest concise Abelian subgroup C1      NOp   1
                         Standard orientation:                         
 ---------------------------------------------------------------------
 Center     Atomic      Atomic             Coordinates (Angstroms)
 Number     Number       Type             X           Y           Z
 ---------------------------------------------------------------------
      1          6           0       -0.994796    0.343387   -0.094049
      2          6           0        1.301056    0.721270    0.003606
      3          7           0        2.676526    0.765157    0.037995
      4         16           0        0.361127   -0.737190   -0.060845
      5         16           0       -2.681001   -0.246120   -0.128093
      6          8           0       -3.421417    0.573289   -1.063600
      7          8           0       -2.557390   -1.690482   -0.227833
      8          7           0       -3.303352    0.069729    1.363862
      9          1           0       -3.390230    1.066957    1.551851
     10          6           0        3.507904   -0.340369    0.041969
     11          8           0        3.047374   -1.467426    0.039686
     12          6           0        4.983133   -0.041864    0.013841
     13          7           0       -0.718790    1.604678   -0.042978
     14          7           0        0.614634    1.835577    0.006476
     15          1           0        3.070908    1.699409    0.048440
     16          1           0       -2.833532   -0.432122    2.114430
     17          1           0        5.310653    0.017205   -1.029554
     18          1           0        5.514699   -0.863004    0.493898
     19          1           0        5.230047    0.900944    0.508237
 ---------------------------------------------------------------------
 Rotational constants (GHZ):           1.9051810           0.3184095           0.2897650
 Basis read from rwf:  (6D, 7F)
 There are   267 symmetry adapted cartesian basis functions of A   symmetry.
 There are   267 symmetry adapted basis functions of A   symmetry.
   267 basis functions,   488 primitive gaussians,   267 cartesian basis functions
    57 alpha electrons       57 beta electrons
       nuclear repulsion energy      1062.5545269801 Hartrees.
 NAtoms=   19 NActive=   19 NUniq=   19 SFac= 1.00D+00 NAtFMM=   60 NAOKFM=F Big=F
 Integral buffers will be    131072 words long.
 Raffenetti 2 integral format.
 Two-electron integral symmetry is turned on.
 One-electron integrals computed using PRISM.
 NBasis=   267 RedAO= T EigKep=  1.21D-05  NBF=   267
 NBsUse=   267 1.00D-06 EigRej= -1.00D+00 NBFU=   267
 Initial guess from the checkpoint file:  "/jobfs/40781015.gadi-pbs/Gau-3292489.chk"
 B after Tr=     0.000000    0.000000   -0.000000
         Rot=    0.999862    0.016570    0.000164   -0.001093 Ang=   1.90 deg.
 ExpMin= 4.05D-02 ExpMax= 2.19D+04 ExpMxC= 3.30D+03 IAcc=3 IRadAn=         5 AccDes= 0.00D+00
 Harris functional with IExCor= 1009 and IRadAn=       5 diagonalized for initial guess.
 HarFok:  IExCor= 1009 AccDes= 0.00D+00 IRadAn=         5 IDoV= 1 UseB2=F ITyADJ=14
 ICtDFT=  3500011 ScaDFX=  1.000000  1.000000  1.000000  1.000000
 FoFCou: FMM=F IPFlag=           0 FMFlag=      100000 FMFlg1=           0
         NFxFlg=           0 DoJE=T BraDBF=F KetDBF=T FulRan=T
         wScrn=  0.000000 ICntrl=       500 IOpCl=  0 I1Cent=   200000004 NGrid=           0
         NMat0=    1 NMatS0=      1 NMatT0=    0 NMatD0=    1 NMtDS0=    0 NMtDT0=    0
 Petite list used in FoFCou.
 Requested convergence on RMS density matrix=1.00D-08 within 128 cycles.
 Requested convergence on MAX density matrix=1.00D-06.
 Requested convergence on             energy=1.00D-06.
 No special actions if energy rises.
 SCF Done:  E(RM062X) =  -1396.72134022     A.U. after   14 cycles
            NFock= 14  Conv=0.45D-08     -V/T= 2.0054
 Calling FoFJK, ICntrl=      2127 FMM=F ISym2X=0 I1Cent= 0 IOpClX= 0 NMat=1 NMatS=1 NMatT=0.
 ***** Axes restored to original set *****
 -------------------------------------------------------------------
 Center     Atomic                   Forces (Hartrees/Bohr)
 Number     Number              X              Y              Z
 -------------------------------------------------------------------
      1        6           0.000010988    0.001281265   -0.001668068
      2        6           0.001138651   -0.000188871    0.000040532
      3        7          -0.003158614    0.000354118    0.000036459
      4       16          -0.001915573    0.001396059    0.000336372
      5       16           0.003334741    0.002526711    0.003146395
      6        8          -0.002950158   -0.004428115    0.002305811
      7        8          -0.000036183    0.002384886   -0.002471138
      8        7          -0.000101181   -0.002465108   -0.004735124
      9        1           0.000425742    0.000343947    0.000785171
     10        6           0.003785547   -0.003739245    0.003969987
     11        8          -0.000609912    0.002477862   -0.003332806
     12        6          -0.000817228    0.001377108   -0.000669794
     13        7           0.000563952   -0.000844093    0.001498562
     14        7          -0.001225260   -0.000832238    0.000210365
     15        1           0.000766398    0.000391432   -0.000432182
     16        1           0.000793580    0.000573260    0.000965499
     17        1           0.000028089   -0.000141848   -0.000054397
     18        1           0.000106728   -0.000341068    0.000076094
     19        1          -0.000140307   -0.000126062   -0.000007739
 -------------------------------------------------------------------
 Cartesian Forces:  Max     0.004735124 RMS     0.001859432

 GradGradGradGradGradGradGradGradGradGradGradGradGradGradGradGradGradGrad
 Berny optimization.
 Using GEDIIS/GDIIS optimizer.
 FormGI is forming the generalized inverse of G from B-inverse, IUseBI=4.
 Internal  Forces:  Max     0.005646171 RMS     0.001262898
 Search for a local minimum.
 Step number   2 out of a maximum of   94
 All quantities printed in internal units (Hartrees-Bohrs-Radians)
 Mixed Optimization -- RFO/linear search
 Update second derivatives using D2CorX and points    1    2
 DE= -1.97D-03 DEPred=-1.97D-03 R= 1.00D+00
 TightC=F SS=  1.41D+00  RLast= 2.43D-01 DXNew= 5.0454D-01 7.2807D-01
 Trust test= 1.00D+00 RLast= 2.43D-01 DXMaxT set to 5.05D-01
 ITU=  1  0
 Use linear search instead of GDIIS.
     Eigenvalues ---    0.00565   0.00819   0.01234   0.01270   0.01929
     Eigenvalues ---    0.01987   0.02022   0.02047   0.02112   0.02159
     Eigenvalues ---    0.02570   0.04243   0.07182   0.07697   0.10265
     Eigenvalues ---    0.11657   0.13575   0.15553   0.16000   0.16000
     Eigenvalues ---    0.16000   0.16000   0.16081   0.19206   0.22811
     Eigenvalues ---    0.24796   0.24989   0.24993   0.24996   0.25000
     Eigenvalues ---    0.25000   0.27363   0.28604   0.31297   0.31928
     Eigenvalues ---    0.32695   0.34173   0.34584   0.34775   0.42640
     Eigenvalues ---    0.43971   0.44186   0.44687   0.49856   0.51429
     Eigenvalues ---    0.52515   0.59916   0.67400   0.85979   0.92603
     Eigenvalues ---    0.93558
 RFO step:  Lambda=-7.62515455D-04 EMin= 5.65313025D-03
 Quartic linear search produced a step of  0.06513.
 Iteration  1 RMS(Cart)=  0.05806446 RMS(Int)=  0.00132641
 Iteration  2 RMS(Cart)=  0.00186735 RMS(Int)=  0.00001615
 Iteration  3 RMS(Cart)=  0.00000222 RMS(Int)=  0.00001614
 Iteration  4 RMS(Cart)=  0.00000000 RMS(Int)=  0.00001614
 Variable       Old X    -DE/DX   Delta X   Delta X   Delta X     New X
                                 (Linear)    (Quad)   (Total)
    R1        3.27707   0.00076   0.00040   0.00311   0.00350   3.28057
    R2        3.37620   0.00167   0.00065   0.00736   0.00802   3.38421
    R3        2.44180  -0.00101   0.00011  -0.00131  -0.00121   2.44059
    R4        2.60140   0.00001   0.00106   0.00166   0.00271   2.60411
    R5        3.28113  -0.00131   0.00011  -0.00424  -0.00412   3.27701
    R6        2.47321  -0.00090  -0.00044  -0.00221  -0.00264   2.47057
    R7        2.61397  -0.00103   0.00067  -0.00116  -0.00049   2.61348
    R8        1.91644   0.00016  -0.00056  -0.00050  -0.00106   1.91538
    R9        2.73509  -0.00565  -0.00089  -0.00772  -0.00861   2.72649
   R10        2.74590  -0.00334  -0.00058  -0.00471  -0.00529   2.74061
   R11        3.11261   0.00342   0.00155   0.01038   0.01193   3.12454
   R12        1.92469  -0.00059  -0.00047  -0.00214  -0.00261   1.92209
   R13        1.92338  -0.00084  -0.00056  -0.00288  -0.00344   1.91994
   R14        2.30078  -0.00397  -0.00113  -0.00630  -0.00743   2.29334
   R15        2.84477   0.00096   0.00116   0.00487   0.00603   2.85080
   R16        2.06960  -0.00015  -0.00005  -0.00054  -0.00059   2.06901
   R17        2.05910   0.00024  -0.00011   0.00056   0.00046   2.05955
   R18        2.06515   0.00004   0.00010   0.00028   0.00039   2.06554
   R19        2.55901   0.00128  -0.00025   0.00217   0.00192   2.56093
    A1        2.13260  -0.00009  -0.00045  -0.00106  -0.00150   2.13111
    A2        2.02691  -0.00096   0.00022  -0.00345  -0.00328   2.02364
    A3        2.12284   0.00105   0.00023   0.00473   0.00497   2.12782
    A4        2.17560  -0.00207   0.00094  -0.00721  -0.00627   2.16933
    A5        2.09076   0.00189  -0.00146   0.00576   0.00430   2.09507
    A6        2.01677   0.00018   0.00052   0.00145   0.00196   2.01873
    A7        2.18356  -0.00408   0.00104  -0.01791  -0.01688   2.16668
    A8        2.00225   0.00115  -0.00174   0.00120  -0.00053   2.00172
    A9        2.09729   0.00293   0.00070   0.01668   0.01737   2.11466
   A10        1.47121   0.00057  -0.00052   0.00143   0.00087   1.47208
   A11        1.88423  -0.00012   0.00055  -0.00066  -0.00014   1.88409
   A12        1.82245  -0.00050  -0.00060  -0.00368  -0.00432   1.81813
   A13        1.85050   0.00067  -0.00258   0.00124  -0.00137   1.84913
   A14        2.16748  -0.00083   0.00353  -0.00298   0.00054   2.16802
   A15        1.85836   0.00007  -0.00080   0.00056  -0.00025   1.85811
   A16        1.85973   0.00095  -0.00091   0.00613   0.00518   1.86491
   A17        1.96835  -0.00039  -0.00011  -0.00094  -0.00107   1.96729
   A18        1.98122  -0.00060   0.00068  -0.00109  -0.00043   1.98079
   A19        1.96712   0.00093   0.00103   0.01045   0.01146   1.97858
   A20        2.10888  -0.00148   0.00095  -0.00480  -0.00385   2.10503
   A21        2.01580  -0.00014  -0.00026  -0.00103  -0.00129   2.01451
   A22        2.15819   0.00162  -0.00069   0.00574   0.00504   2.16324
   A23        1.89817   0.00006   0.00072   0.00195   0.00266   1.90083
   A24        1.89695  -0.00047  -0.00035  -0.00419  -0.00454   1.89241
   A25        1.96495   0.00023   0.00079   0.00286   0.00364   1.96859
   A26        1.89071   0.00014  -0.00048  -0.00008  -0.00056   1.89015
   A27        1.89326   0.00002  -0.00014   0.00097   0.00081   1.89407
   A28        1.91836   0.00001  -0.00055  -0.00154  -0.00208   1.91628
   A29        1.95866   0.00052  -0.00015   0.00231   0.00211   1.96077
   A30        1.95109  -0.00032  -0.00009  -0.00140  -0.00152   1.94956
    D1       -3.11282   0.00026  -0.00057   0.01088   0.01032  -3.10250
    D2       -0.01422   0.00036  -0.00073   0.01680   0.01606   0.00184
    D3       -2.41342   0.00123   0.00305   0.10152   0.10456  -2.30886
    D4       -0.07667  -0.00023   0.00734   0.09480   0.10213   0.02547
    D5        1.88386   0.00088   0.00497   0.10058   0.10556   1.98942
    D6        0.77351   0.00117   0.00322   0.09548   0.09869   0.87220
    D7        3.11025  -0.00029   0.00751   0.08876   0.09627  -3.07666
    D8       -1.21241   0.00082   0.00514   0.09454   0.09970  -1.11271
    D9        0.01744  -0.00048   0.00083  -0.02083  -0.01999  -0.00255
   D10        3.11630  -0.00041   0.00065  -0.01510  -0.01444   3.10186
   D11       -0.01381  -0.00006  -0.00077  -0.00404  -0.00482  -0.01864
   D12        3.11356  -0.00010  -0.00106  -0.00655  -0.00760   3.10596
   D13        3.13881  -0.00007  -0.00052  -0.00379  -0.00432   3.13449
   D14       -0.01700  -0.00011  -0.00081  -0.00630  -0.00709  -0.02409
   D15       -3.12334  -0.00017   0.00071  -0.00855  -0.00785  -3.13118
   D16        0.00764  -0.00015   0.00046  -0.00877  -0.00832  -0.00067
   D17        3.13142  -0.00007  -0.00035  -0.00059  -0.00094   3.13049
   D18       -0.00011  -0.00007  -0.00013  -0.00030  -0.00042  -0.00053
   D19       -0.02462   0.00001  -0.00067   0.00145   0.00077  -0.02385
   D20        3.09100  -0.00001  -0.00057  -0.00224  -0.00282   3.08818
   D21        3.13191   0.00007  -0.00035   0.00422   0.00387   3.13578
   D22       -0.03566   0.00005  -0.00026   0.00053   0.00029  -0.03537
   D23        1.16113   0.00014   0.00108   0.00171   0.00279   1.16393
   D24       -1.10329  -0.00028  -0.00087  -0.01126  -0.01214  -1.11544
   D25       -0.84255  -0.00007   0.00206   0.00164   0.00370  -0.83885
   D26       -3.10697  -0.00048   0.00011  -0.01134  -0.01124  -3.11821
   D27        3.09554   0.00026  -0.00118   0.00068  -0.00048   3.09506
   D28        0.83112  -0.00016  -0.00313  -0.01230  -0.01542   0.81570
   D29       -1.56551  -0.00004  -0.00029   0.00195   0.00166  -1.56385
   D30        2.66271   0.00002   0.00008   0.00331   0.00340   2.66610
   D31        0.53319   0.00018   0.00050   0.00632   0.00683   0.54002
   D32        1.54929  -0.00012  -0.00016  -0.00204  -0.00221   1.54708
   D33       -0.50568  -0.00006   0.00021  -0.00068  -0.00048  -0.50615
   D34       -2.63520   0.00011   0.00063   0.00233   0.00296  -2.63224
   D35       -0.01082   0.00033  -0.00043   0.01316   0.01276   0.00193
         Item               Value     Threshold  Converged?
 Maximum Force            0.005646     0.000450     NO 
 RMS     Force            0.001263     0.000300     NO 
 Maximum Displacement     0.209720     0.001800     NO 
 RMS     Displacement     0.058389     0.001200     NO 
 Predicted change in Energy=-4.082729D-04
 GradGradGradGradGradGradGradGradGradGradGradGradGradGradGradGradGradGrad

                          Input orientation:                          
 ---------------------------------------------------------------------
 Center     Atomic      Atomic             Coordinates (Angstroms)
 Number     Number       Type             X           Y           Z
 ---------------------------------------------------------------------
      1          6           0        1.054608    0.213440   -0.235815
      2          6           0       -1.253491    0.529456   -0.252192
      3          7           0       -2.618632    0.630611   -0.093642
      4         16           0       -0.196860   -0.272241    0.864936
      5         16           0        2.770371   -0.233192    0.016802
      6          8           0        3.569468    0.955502   -0.156700
      7          8           0        2.754179   -1.035914    1.224548
      8          7           0        3.163658   -1.247964   -1.227951
      9          1           0        3.158194   -0.781448   -2.131762
     10          6           0       -3.319293    0.086178    0.967179
     11          8           0       -2.744325   -0.549547    1.826280
     12          6           0       -4.799538    0.376753    0.982930
     13          7           0        0.668197    0.880693   -1.271887
     14          7           0       -0.673656    1.069241   -1.292209
     15          1           0       -3.091046    1.158744   -0.818373
     16          1           0        2.640764   -2.119037   -1.220975
     17          1           0       -4.972869    1.305961    1.535445
     18          1           0       -5.304077   -0.433415    1.509125
     19          1           0       -5.220408    0.485436   -0.019958
 ---------------------------------------------------------------------
                    Distance matrix (angstroms):
                    1          2          3          4          5
     1  C    0.000000
     2  C    2.329690   0.000000
     3  N    3.699586   1.378035   0.000000
     4  S    1.736004   1.734117   2.756628   0.000000
     5  S    1.790848   4.104321   5.458911   3.086310   0.000000
     6  O    2.623249   4.842682   6.196944   4.091005   1.442794
     7  O    2.565558   4.548908   5.777719   3.069389   1.450267
     8  N    2.751023   4.860302   6.184705   4.077412   1.653435
     9  H    3.001582   4.971340   6.286459   4.527237   2.251071
    10  C    4.538106   2.439447   1.382996   3.144600   6.171646
    11  O    4.389336   2.776127   2.257139   2.736907   5.812586
    12  C    5.981892   3.758097   2.445364   4.649706   7.655649
    13  N    1.291506   2.203640   3.500578   2.577517   2.705660
    14  N    2.198923   1.307368   2.326347   2.584605   3.907833
    15  H    4.291786   2.023159   1.013575   3.641094   6.082040
    16  H    2.987789   4.808147   6.040918   3.976656   2.259492
    17  H    6.376633   4.199093   2.941506   5.074502   8.039467
    18  H    6.625414   4.520687   3.303427   5.150206   8.213636
    19  H    6.284616   3.973953   2.606864   5.156854   8.023111
                    6          7          8          9         10
     6  O    0.000000
     7  O    2.557006   0.000000
     8  N    2.483450   2.495474   0.000000
     9  H    2.662144   3.390103   1.017124   0.000000
    10  C    7.033766   6.181618   6.973320   7.232846   0.000000
    11  O    6.786852   5.552673   6.687329   7.110528   1.213585
    12  C    8.466048   7.688475   8.422600   8.623702   1.508578
    13  N    3.109118   3.775830   3.280311   3.114833   4.641632
    14  N    4.393907   4.745081   4.483140   4.337393   3.615334
    15  H    6.696385   6.569377   6.714263   6.674005   2.095398
    16  H    3.383484   2.677052   1.015990   1.698944   6.721107
    17  H    8.715372   8.080118   8.964484   9.160779   2.131926
    18  H    9.134761   8.085758   8.936309   9.218851   2.122039
    19  H    8.803498   8.213242   8.646183   8.733023   2.179010
                   11         12         13         14         15
    11  O    0.000000
    12  C    2.406901   0.000000
    13  N    4.825923   5.935847   0.000000
    14  N    4.078372   4.762216   1.355187   0.000000
    15  H    3.167438   2.602911   3.796695   2.465017   0.000000
    16  H    6.383435   8.151335   3.590542   4.599518   6.615103
    17  H    2.914431   1.094871   6.315346   5.151203   3.017182
    18  H    2.581938   1.089868   6.717809   5.616604   3.584651
    19  H    3.257418   1.093036   6.033176   4.757352   2.371706
                   16         17         18         19
    16  H    0.000000
    17  H    8.791807   0.000000
    18  H    8.568271   1.770824   0.000000
    19  H    8.368019   1.775898   1.785884   0.000000
 Stoichiometry    C4H6N4O3S2
 Framework group  C1[X(C4H6N4O3S2)]
 Deg. of freedom    51
 Full point group                 C1      NOp   1
 Largest Abelian subgroup         C1      NOp   1
 Largest concise Abelian subgroup C1      NOp   1
                         Standard orientation:                         
 ---------------------------------------------------------------------
 Center     Atomic      Atomic             Coordinates (Angstroms)
 Number     Number       Type             X           Y           Z
 ---------------------------------------------------------------------
      1          6           0       -0.990315    0.341865   -0.099525
      2          6           0        1.304281    0.733041   -0.003256
      3          7           0        2.680990    0.777248    0.037949
      4         16           0        0.375372   -0.729572   -0.074361
      5         16           0       -2.675345   -0.264305   -0.118730
      6          8           0       -3.392423    0.447954   -1.148362
      7          8           0       -2.534249   -1.706940   -0.072141
      8          7           0       -3.341240    0.198948    1.322043
      9          1           0       -3.440443    1.208018    1.402522
     10          6           0        3.493535   -0.341825    0.049010
     11          8           0        3.011455   -1.455551    0.046788
     12          6           0        4.976411   -0.065742    0.023266
     13          7           0       -0.719144    1.603973   -0.060330
     14          7           0        0.613548    1.843040   -0.002783
     15          1           0        3.074581    1.711258    0.044744
     16          1           0       -2.896405   -0.227862    2.129626
     17          1           0        5.309714   -0.014246   -1.018367
     18          1           0        5.490017   -0.896896    0.506178
     19          1           0        5.241287    0.871533    0.519334
 ---------------------------------------------------------------------
 Rotational constants (GHZ):           1.9040725           0.3197010           0.2909240
 Basis read from rwf:  (6D, 7F)
 There are   267 symmetry adapted cartesian basis functions of A   symmetry.
 There are   267 symmetry adapted basis functions of A   symmetry.
   267 basis functions,   488 primitive gaussians,   267 cartesian basis functions
    57 alpha electrons       57 beta electrons
       nuclear repulsion energy      1063.5331670856 Hartrees.
 NAtoms=   19 NActive=   19 NUniq=   19 SFac= 1.00D+00 NAtFMM=   60 NAOKFM=F Big=F
 Integral buffers will be    131072 words long.
 Raffenetti 2 integral format.
 Two-electron integral symmetry is turned on.
 One-electron integrals computed using PRISM.
 NBasis=   267 RedAO= T EigKep=  1.19D-05  NBF=   267
 NBsUse=   267 1.00D-06 EigRej= -1.00D+00 NBFU=   267
 Initial guess from the checkpoint file:  "/jobfs/40781015.gadi-pbs/Gau-3292489.chk"
 B after Tr=    -0.000000    0.000000    0.000000
         Rot=    0.999765    0.021632    0.001053    0.000065 Ang=   2.48 deg.
 ExpMin= 4.05D-02 ExpMax= 2.19D+04 ExpMxC= 3.30D+03 IAcc=3 IRadAn=         5 AccDes= 0.00D+00
 Harris functional with IExCor= 1009 and IRadAn=       5 diagonalized for initial guess.
 HarFok:  IExCor= 1009 AccDes= 0.00D+00 IRadAn=         5 IDoV= 1 UseB2=F ITyADJ=14
 ICtDFT=  3500011 ScaDFX=  1.000000  1.000000  1.000000  1.000000
 FoFCou: FMM=F IPFlag=           0 FMFlag=      100000 FMFlg1=           0
         NFxFlg=           0 DoJE=T BraDBF=F KetDBF=T FulRan=T
         wScrn=  0.000000 ICntrl=       500 IOpCl=  0 I1Cent=   200000004 NGrid=           0
         NMat0=    1 NMatS0=      1 NMatT0=    0 NMatD0=    1 NMtDS0=    0 NMtDT0=    0
 Petite list used in FoFCou.
 Requested convergence on RMS density matrix=1.00D-08 within 128 cycles.
 Requested convergence on MAX density matrix=1.00D-06.
 Requested convergence on             energy=1.00D-06.
 No special actions if energy rises.
 SCF Done:  E(RM062X) =  -1396.72177519     A.U. after   13 cycles
            NFock= 13  Conv=0.91D-08     -V/T= 2.0054
 Calling FoFJK, ICntrl=      2127 FMM=F ISym2X=0 I1Cent= 0 IOpClX= 0 NMat=1 NMatS=1 NMatT=0.
 ***** Axes restored to original set *****
 -------------------------------------------------------------------
 Center     Atomic                   Forces (Hartrees/Bohr)
 Number     Number              X              Y              Z
 -------------------------------------------------------------------
      1        6          -0.000371633    0.001236902   -0.000035962
      2        6          -0.000074019    0.000349268    0.000772656
      3        7           0.000095263   -0.000119114    0.000084179
      4       16           0.000448704   -0.000498996   -0.000514930
      5       16          -0.001887466   -0.002028675   -0.002140350
      6        8           0.001030433    0.000654119    0.001310779
      7        8           0.000903326    0.000553456    0.000248660
      8        7           0.000605184    0.001169858    0.000660953
      9        1          -0.000214986    0.000300886   -0.000266966
     10        6          -0.001622359    0.001579476   -0.001373646
     11        8           0.000483055   -0.001181585    0.001757739
     12        6           0.000105464   -0.000148436   -0.000148790
     13        7           0.000939261   -0.001978378   -0.000476648
     14        7          -0.000269575    0.000366609   -0.000147830
     15        1          -0.000444589    0.000352819   -0.000183422
     16        1          -0.000348111   -0.000335859    0.000339405
     17        1           0.000291475   -0.000002327    0.000001712
     18        1          -0.000105664   -0.000178736    0.000110331
     19        1           0.000436240   -0.000091288    0.000002129
 -------------------------------------------------------------------
 Cartesian Forces:  Max     0.002140350 RMS     0.000840371

 GradGradGradGradGradGradGradGradGradGradGradGradGradGradGradGradGradGrad
 Berny optimization.
 Using GEDIIS/GDIIS optimizer.
 FormGI is forming the generalized inverse of G from B-inverse, IUseBI=4.
 Internal  Forces:  Max     0.002090891 RMS     0.000567543
 Search for a local minimum.
 Step number   3 out of a maximum of   94
 All quantities printed in internal units (Hartrees-Bohrs-Radians)
 Mixed Optimization -- En-DIIS/RFO-DIIS
 Update second derivatives using D2CorX and points    1    2    3
 DE= -4.35D-04 DEPred=-4.08D-04 R= 1.07D+00
 TightC=F SS=  1.41D+00  RLast= 2.55D-01 DXNew= 8.4853D-01 7.6447D-01
 Trust test= 1.07D+00 RLast= 2.55D-01 DXMaxT set to 7.64D-01
 ITU=  1  1  0
 Use linear search instead of GDIIS.
     Eigenvalues ---    0.00296   0.00819   0.01237   0.01271   0.01987
     Eigenvalues ---    0.02022   0.02044   0.02069   0.02142   0.02160
     Eigenvalues ---    0.02766   0.04290   0.07182   0.07713   0.10293
     Eigenvalues ---    0.12804   0.13557   0.15591   0.16000   0.16000
     Eigenvalues ---    0.16000   0.16015   0.16476   0.19219   0.23136
     Eigenvalues ---    0.24690   0.24992   0.24994   0.24997   0.25000
     Eigenvalues ---    0.25299   0.27260   0.30121   0.31830   0.32471
     Eigenvalues ---    0.33474   0.34172   0.34601   0.34769   0.43971
     Eigenvalues ---    0.44053   0.44651   0.45632   0.50005   0.51463
     Eigenvalues ---    0.52514   0.60320   0.67246   0.91097   0.93444
     Eigenvalues ---    0.95053
 RFO step:  Lambda=-4.59596909D-04 EMin= 2.96326379D-03
 Quartic linear search produced a step of  0.14394.
 Iteration  1 RMS(Cart)=  0.08630788 RMS(Int)=  0.00224861
 Iteration  2 RMS(Cart)=  0.00356004 RMS(Int)=  0.00003715
 Iteration  3 RMS(Cart)=  0.00000511 RMS(Int)=  0.00003699
 Iteration  4 RMS(Cart)=  0.00000000 RMS(Int)=  0.00003699
 Variable       Old X    -DE/DX   Delta X   Delta X   Delta X     New X
                                 (Linear)    (Quad)   (Total)
    R1        3.28057   0.00007   0.00050   0.00193   0.00241   3.28298
    R2        3.38421   0.00003   0.00115   0.00406   0.00521   3.38943
    R3        2.44059  -0.00082  -0.00017  -0.00170  -0.00188   2.43871
    R4        2.60411   0.00080   0.00039   0.00404   0.00443   2.60854
    R5        3.27701   0.00024  -0.00059  -0.00053  -0.00113   3.27588
    R6        2.47057   0.00050  -0.00038  -0.00062  -0.00098   2.46959
    R7        2.61348   0.00048  -0.00007   0.00167   0.00160   2.61508
    R8        1.91538   0.00052  -0.00015   0.00018   0.00003   1.91540
    R9        2.72649   0.00095  -0.00124  -0.00336  -0.00460   2.72188
   R10        2.74061  -0.00011  -0.00076  -0.00291  -0.00368   2.73693
   R11        3.12454  -0.00124   0.00172   0.00357   0.00528   3.12982
   R12        1.92209   0.00038  -0.00038  -0.00067  -0.00104   1.92104
   R13        1.91994   0.00047  -0.00050  -0.00086  -0.00136   1.91858
   R14        2.29334   0.00209  -0.00107  -0.00184  -0.00291   2.29044
   R15        2.85080  -0.00079   0.00087   0.00114   0.00201   2.85281
   R16        2.06901  -0.00005  -0.00009  -0.00045  -0.00053   2.06847
   R17        2.05955   0.00023   0.00007   0.00078   0.00085   2.06040
   R18        2.06554  -0.00018   0.00006  -0.00028  -0.00022   2.06532
   R19        2.56093   0.00060   0.00028   0.00170   0.00199   2.56292
    A1        2.13111   0.00028  -0.00022   0.00021   0.00006   2.13116
    A2        2.02364   0.00021  -0.00047  -0.00059  -0.00119   2.02244
    A3        2.12782  -0.00050   0.00072   0.00024   0.00102   2.12883
    A4        2.16933   0.00116  -0.00090   0.00356   0.00268   2.17202
    A5        2.09507  -0.00057   0.00062  -0.00273  -0.00208   2.09299
    A6        2.01873  -0.00059   0.00028  -0.00073  -0.00055   2.01818
    A7        2.16668   0.00140  -0.00243   0.00150  -0.00093   2.16575
    A8        2.00172  -0.00046  -0.00008  -0.00411  -0.00419   1.99752
    A9        2.11466  -0.00094   0.00250   0.00258   0.00508   2.11974
   A10        1.47208   0.00024   0.00012   0.00065   0.00057   1.47264
   A11        1.88409   0.00035  -0.00002   0.00277   0.00275   1.88684
   A12        1.81813   0.00060  -0.00062   0.00178   0.00116   1.81928
   A13        1.84913  -0.00022  -0.00020  -0.00179  -0.00198   1.84715
   A14        2.16802  -0.00126   0.00008  -0.00667  -0.00660   2.16142
   A15        1.85811   0.00026  -0.00004   0.00047   0.00043   1.85854
   A16        1.86491   0.00037   0.00075   0.00383   0.00458   1.86948
   A17        1.96729  -0.00018  -0.00015  -0.00268  -0.00283   1.96446
   A18        1.98079  -0.00048  -0.00006  -0.00346  -0.00352   1.97727
   A19        1.97858   0.00030   0.00165   0.00642   0.00806   1.98664
   A20        2.10503   0.00103  -0.00055   0.00418   0.00362   2.10865
   A21        2.01451  -0.00072  -0.00019  -0.00388  -0.00407   2.01044
   A22        2.16324  -0.00031   0.00073  -0.00012   0.00060   2.16384
   A23        1.90083  -0.00033   0.00038  -0.00041  -0.00003   1.90080
   A24        1.89241   0.00019  -0.00065  -0.00058  -0.00123   1.89118
   A25        1.96859  -0.00056   0.00052  -0.00170  -0.00117   1.96742
   A26        1.89015   0.00016  -0.00008   0.00088   0.00080   1.89095
   A27        1.89407   0.00035   0.00012   0.00178   0.00190   1.89597
[...]
 .09622676,-0.04537656,0.02365917,-0.10431657,-0.01359404,0.00052225,0.
 00585376,-0.01068948,-0.07085008,0.32953131,-0.16979969,0.01389926,-0.
 00462586,-0.00700321,-0.00142078,0.01203359,0.01260880,-0.00063827,-0.
 00537875,-0.01243867,0.00047173,0.00545252,0.51945647,0.01744994,-0.05
 217197,0.00109784,-0.00027077,0.00012609,-0.00309429,-0.00252417,0.000
 97928,0.00169897,-0.00212448,0.00324715,-0.00185159,0.13866697,1.11035
 919,-0.00895182,0.00249197,-0.06076147,0.00587915,0.00032989,-0.002681
 03,0.00208010,0.00013365,-0.00022512,0.01825356,-0.00419246,0.00657896
 ,0.03056267,-0.07088508,0.69099086,-0.00607134,-0.02231131,-0.01381136
 ,0.00250156,0.00117195,-0.00504027,-0.00414702,0.00053097,0.00203900,0
 .00051849,-0.00033253,-0.00209981,-0.16992727,-0.19787834,-0.07032766,
 0.15317073,0.00278832,-0.00051082,-0.00117921,0.00053986,0.00040525,-0
 .00098269,-0.00136499,0.00030463,0.00043576,-0.00059874,-0.00070868,-0
 .00165215,-0.17851983,-0.49028921,-0.14053039,0.20788223,0.51441256,-0
 .00525019,-0.00786255,0.00588076,-0.00043737,0.00055802,-0.00115282,-0
 .00148630,0.00033714,0.00080048,-0.00179824,-0.00043550,-0.00209888,-0
 .06505938,-0.15147615,-0.13774569,0.07853568,0.17385741,0.12786489,0.0
 0464040,0.02154040,-0.01928364,0.00297010,0.00070442,-0.00250287,-0.00
 275028,0.00021361,0.00129138,0.00158992,-0.00114863,-0.00075045,-0.088
 69427,0.02969598,-0.02079608,0.01822712,-0.01766071,0.00622439,0.06261
 443,-0.00651474,-0.00497428,0.01283608,-0.00071133,-0.00024660,0.00337
 918,0.00254600,0.00008602,-0.00153502,0.00036015,-0.00136633,0.0007379
 6,0.01530295,-0.46619868,0.24003067,0.00378543,-0.01434901,0.02304087,
 -0.02411393,0.48328920,0.00225764,0.01327801,-0.00099699,-0.00051437,0
 .00027093,-0.00426831,-0.00213812,-0.00012439,0.00157392,-0.00174889,0
 .00117783,-0.00100142,-0.00877887,0.24666808,-0.24145503,-0.00460358,-
 0.01504081,0.01529744,0.01756926,-0.28129141,0.24921605,-0.00796074,0.
 00535799,0.02439166,-0.00022715,0.00011387,0.00083267,-0.00304950,-0.0
 0025530,0.00048425,-0.00178281,0.00272254,-0.00452468,-0.08259261,0.00
 175323,0.04026658,0.01110630,-0.00786572,-0.01290247,0.00875925,0.0007
 1643,-0.00040421,0.15827471,0.00316463,0.00779068,-0.00640619,0.000378
 56,-0.00010002,-0.00030130,0.00059562,-0.00011451,-0.00007047,0.000693
 53,-0.00061225,0.00174741,0.00825655,-0.10948251,-0.02360330,0.0090184
 0,-0.01099082,-0.03793608,-0.01283468,0.00385388,0.03676632,0.10334312
 ,0.73182983,0.00042592,-0.00125366,-0.00657468,-0.00128819,0.00006402,
 0.00023307,0.00137305,-0.00028501,0.00023135,-0.00082560,-0.00077582,0
 .00273792,0.07858200,-0.02871806,-0.21470697,0.00817737,-0.00831649,-0
 .00867431,0.01263804,0.00057806,-0.01892407,0.00693790,-0.02229806,0.5
 8289363,-0.00064257,0.00060638,0.00075663,0.00001296,0.00001565,-0.000
 35644,0.00073213,-0.00002495,-0.00047128,0.00041766,-0.00002593,0.0000
 2431,-0.00293769,-0.00900029,0.01762471,-0.00235345,-0.00111595,-0.001
 65204,0.00174436,-0.00083366,0.00376292,-0.01146086,0.04178773,-0.0416
 3615,0.01713075,-0.00005292,-0.00027044,-0.00097443,-0.00000736,0.0000
 9356,0.00005865,0.00026537,0.00000247,-0.00004041,0.00007712,-0.000017
 59,0.00032259,-0.00158784,0.01114175,-0.00084227,-0.00034271,-0.002523
 36,-0.00067387,0.00181232,0.00230410,-0.00473928,0.01373259,-0.2942795
 6,0.17821809,-0.02129190,0.30162536,-0.00003387,-0.00080190,0.00077885
 ,-0.00009001,0.00004079,-0.00006143,-0.00042903,0.00003528,0.00012685,
 -0.00011682,0.00023584,-0.00057081,-0.00457017,0.02768768,-0.01854064,
 -0.00004077,-0.00264205,0.00357716,0.00311264,-0.00026319,-0.00534352,
 -0.01088063,0.18495731,-0.21343736,0.01299689,-0.19370708,0.21877997,0
 .00148798,-0.00120416,0.00245200,-0.03309812,-0.00361354,0.03793954,-0
 .18879348,0.00285770,0.09027053,-0.00497844,0.00099122,0.00158065,-0.0
 0504926,0.00075027,-0.00068886,0.00160786,0.00059294,0.00042231,0.0012
 6243,-0.00087140,0.00056990,0.00150897,-0.00033561,-0.00087561,-0.0003
 4154,-0.00013434,0.00016470,0.72174820,0.00247537,-0.00041519,-0.00321
 458,-0.01008041,0.00007194,-0.00894622,0.01619405,-0.05812456,0.025484
 17,0.00443825,0.00164321,0.00052487,-0.00125779,-0.00011604,-0.0004860
 2,0.00015963,-0.00010469,0.00007451,0.00031295,-0.00047474,0.00047707,
 0.00027472,-0.00002179,0.00001597,-0.00006821,-0.00001374,0.00001599,-
 0.13825265,0.29319002,-0.01179408,-0.00034376,0.01148420,0.06016452,-0
 .01335981,0.00702469,0.04039954,0.03561937,-0.21944508,-0.01228838,0.0
 0295212,-0.00065212,0.00907175,-0.00228822,0.00181453,-0.00310709,-0.0
 0097028,-0.00136047,-0.00202912,0.00209699,-0.00187253,-0.00196364,0.0
 0043863,0.00055278,0.00062384,0.00013723,-0.00026552,0.16287195,-0.183
 69199,0.82503494,0.00356903,0.00123225,-0.00535495,-0.00967567,0.00216
 893,-0.00470023,0.04081897,-0.00200365,-0.00716477,-0.00362155,-0.0010
 5260,0.00305901,0.00241873,-0.00032364,0.00085028,-0.00067131,-0.00043
 089,-0.00014892,-0.00053708,0.00035312,-0.00008870,-0.00115353,0.00031
 121,0.00068852,0.00019115,0.00009749,-0.00010383,-0.27868289,0.0988119
 3,-0.24394599,0.27475577,-0.00147277,0.00335992,0.00257270,0.00713594,
 -0.00507297,-0.00030423,-0.00457183,0.01208993,0.03210997,-0.00145898,
 -0.00439455,-0.00081290,0.00067600,-0.00055774,0.00020540,-0.00019730,
 0.00015160,-0.00006458,-0.00008311,0.00040991,-0.00030290,-0.00014743,
 0.00007369,-0.00001131,0.00003896,-0.00001605,-0.00002463,0.10576673,-
 0.13545202,0.15621699,-0.11780030,0.10814538,0.00629049,0.00038444,-0.
 00298472,-0.02462610,0.00342769,0.00012781,0.00355303,0.03035089,-0.10
 538179,0.00490027,-0.00117826,-0.00362529,-0.00489367,0.00120961,-0.00
 164612,0.00162018,0.00059922,0.00081383,0.00103667,-0.00115845,0.00109
 179,0.00122300,-0.00030256,-0.00033319,-0.00032613,-0.00007650,0.00013
 977,-0.27281957,0.16136177,-0.51362740,0.29085838,-0.20393111,0.627720
 88,-0.00013603,-0.00008331,0.00012040,0.00384775,-0.00008219,0.0003629
 1,-0.02430017,0.00552245,0.00796247,0.00001343,0.00026465,-0.00048881,
 0.00087494,-0.00011308,0.00008868,-0.00027702,-0.00011761,-0.00007168,
 -0.00022604,0.00014989,-0.00009182,-0.00026026,0.00005865,0.00013528,0
 .00007063,0.00002399,-0.00003160,-0.21011225,0.02191046,0.00843560,-0.
 02192716,0.01300024,-0.01720719,0.50817563,-0.00014627,-0.00065379,-0.
 00047585,-0.00052939,0.00484870,0.00239778,-0.00312438,0.01187074,0.00
 011113,-0.00012901,0.00081602,0.00062793,-0.00035487,0.00007398,-0.000
 02082,0.00011153,0.00002696,0.00000681,0.00006562,-0.00006285,0.000031
 27,0.00014696,-0.00001569,-0.00008419,-0.00002244,-0.00000517,0.000021
 95,0.01986403,-0.09236772,-0.00173606,0.01740019,0.01512277,0.01062449
 ,0.02574383,0.55267235,0.00061392,-0.00030968,-0.00026024,-0.00109795,
 0.00121504,-0.00443597,0.03688055,-0.00599044,-0.00004758,0.00070582,0
 .00047108,-0.00068279,-0.00039054,0.00009892,-0.00009054,0.00013305,0.
 00003562,0.00005703,0.00008298,-0.00010865,0.00010181,0.00012454,-0.00
 002589,-0.00002055,-0.00004486,-0.00001066,0.00001320,0.00224439,-0.00
 151283,-0.08885511,-0.04050095,0.01657886,-0.00174737,-0.00494084,-0.0
 1679053,0.61693888,-0.11468554,0.03141435,-0.10360963,-0.07935558,-0.0
 0809980,0.08727491,-0.00015238,0.00028922,0.00505260,-0.00546189,0.011
 28654,-0.02587231,-0.02243727,0.00953314,-0.02627265,0.00067499,-0.002
 78047,0.00104691,-0.00194313,0.00528121,-0.00064303,-0.00116556,-0.000
 20937,-0.00249812,-0.00006303,0.00078444,0.00009043,-0.00164683,0.0019
 1101,-0.00515264,0.00025156,-0.00073867,0.00201705,-0.00025953,0.00013
 193,0.00023019,0.47565481,0.03210935,-0.08473992,0.10811189,0.00534403
 ,0.00598559,-0.01031353,0.00395139,0.00837460,0.00054280,-0.00544879,0
 .01671084,0.02895683,0.00727381,-0.01411723,0.00122236,-0.00471547,0.0
 0087549,-0.00080801,0.00271898,-0.00050000,0.00233024,0.00035672,0.001
 32918,0.00112262,0.00003645,-0.00105359,-0.00017595,0.00072969,0.00244
 465,0.00446958,-0.00190976,-0.00075666,-0.00192105,-0.00016774,-0.0009
 7907,-0.00020032,-0.07409392,0.14075051,-0.08583619,0.10386217,-0.4160
 4409,0.03443185,0.00018569,-0.01678331,-0.01005995,0.00272427,0.004207
 30,0.03973652,0.01837697,-0.07277975,-0.02024141,0.00273191,-0.0042524
 8,0.00209461,-0.00075901,0.00033585,0.00329377,-0.00075381,0.00087491,
 0.00049077,-0.00002402,0.00028883,0.00056261,0.00019442,-0.00024911,0.
 00052177,0.00336692,-0.01088368,0.00615797,-0.00261346,0.00472353,-0.0
 0003125,-0.00004611,0.00012074,0.05574816,-0.13231029,0.58031477,-0.08
 321659,0.03844747,-0.08014008,-0.15294364,-0.01092244,0.10408254,-0.04
 218072,-0.00755342,0.05922421,-0.00037590,-0.00679787,0.03861981,0.024
 73318,-0.00129712,-0.00199797,-0.00707416,-0.00294190,-0.00127115,-0.0
 0591615,0.00379904,-0.00368753,-0.00218010,0.00037727,0.00318419,-0.00
 018553,0.00044130,-0.00031665,-0.00025455,0.00291499,-0.01125732,0.001
 94230,-0.00107973,0.00321401,-0.00073309,-0.00049729,0.00204271,-0.247
 91129,0.03453187,-0.02758917,0.51338800,0.02062621,0.00173653,0.023931
 36,-0.01149221,-0.07364007,0.05883931,-0.00165402,0.00240428,-0.006973
 78,0.01248773,0.01234201,0.01406854,-0.00091727,0.00948253,0.00426936,
 0.00334076,0.00071771,0.00024748,-0.00154281,-0.00028726,-0.00179889,-
 0.00007653,-0.00077267,0.00002182,0.00027381,-0.00015025,-0.00005920,0
 .00170886,-0.00108080,-0.00040617,-0.00031611,0.00060979,0.00047408,0.
 00016451,0.00095816,-0.00009073,0.02568078,-0.07284571,0.00555070,-0.0
 4821186,0.12137991,-0.02126812,0.01125479,-0.03010810,0.10526599,0.058
 58735,-0.36660717,0.03593627,-0.00309640,-0.01091807,-0.03618604,0.025
 73943,-0.06207624,-0.00555344,0.00621860,-0.00840269,0.00342098,0.0003
 7855,0.00246216,-0.00097845,-0.00130338,0.00326780,0.00237439,-0.00079
 166,0.00142538,-0.00116430,-0.00028349,0.00052883,-0.00765463,-0.00109
 055,0.00827369,0.00080395,0.00098727,-0.00359855,0.00065930,0.00011679
 ,-0.00012662,0.01204186,-0.00012105,-0.06981823,-0.08480431,-0.0976323
 3,0.53633315,-0.00001030,0.00023734,-0.00093917,-0.01914804,0.01141879
 ,-0.03036055,-0.15935668,0.06420305,-0.14705720,-0.00253591,-0.0001245
 2,0.00245438,-0.00021680,0.00021343,0.00030920,0.00017007,-0.00001422,
 0.00001182,0.00010600,-0.00014511,0.00010761,-0.00008693,0.00001726,0.
 00006795,-0.00003970,0.00001006,-0.00000125,0.01839738,-0.00718277,0.0
 0851198,-0.00131921,-0.00035904,0.00800896,-0.00030793,0.00049810,0.00
 095769,-0.00026430,-0.00055144,0.00106206,0.00310157,-0.00020874,-0.00
 204166,0.16359202,-0.00023511,0.00034920,0.00039571,0.00302985,-0.0003
 8870,0.00239267,0.06526966,-0.04845113,0.10791667,0.00017315,0.0005945
 1,-0.00020620,0.00038914,0.00092999,0.00024781,0.00010854,-0.00010870,
 0.00005382,-0.00016304,-0.00003480,-0.00014222,-0.00020401,-0.00009563
 ,0.00005387,0.00001614,0.00003136,-0.00000324,-0.00032634,-0.00694995,
 0.00001178,0.00052696,0.00650106,0.00102427,0.00031578,-0.00069826,0.0
 0059005,-0.00036858,-0.00177651,-0.00058153,-0.00094422,-0.00090329,0.
 00023637,-0.06745000,0.05140099,0.00116779,0.00002063,-0.00065753,-0.0
 0003815,-0.00261904,0.01096662,-0.14881357,0.10751097,-0.32442778,0.00
 131696,0.00000958,-0.00038722,-0.00073543,0.00043588,-0.00018423,0.000
 33301,0.00010784,0.00012072,0.00011000,-0.00014380,0.00007436,0.000268
 74,-0.00011018,-0.00021823,-0.00003131,-0.00002496,0.00005318,-0.01834
 184,0.00535864,-0.01411974,0.00405137,0.00168475,-0.00290708,-0.000207
 61,-0.00104644,0.00109396,0.00023393,-0.00047399,-0.00038880,0.0010658
 0,-0.00023390,-0.00063339,0.15889664,-0.11064435,0.33128900,-0.0007709
 0,-0.00100798,0.00131194,-0.00028918,0.00002837,0.00026499,0.00059178,
 0.00009322,-0.00037081,-0.00001855,-0.00007419,-0.00011553,0.00053677,
 0.01552788,0.01302580,0.00269054,0.00168115,0.00388861,-0.00174126,0.0
 0080973,-0.00150928,-0.06758854,-0.15464835,-0.06514666,-0.00230908,0.
 00615872,0.00026803,-0.00025525,-0.00006559,0.00049225,0.00008451,0.00
 003509,-0.00023917,0.00004860,-0.00002846,-0.00002251,-0.00054483,-0.0
 0031729,-0.00033453,0.00002290,0.00008280,-0.00069040,-0.00003533,0.00
 004820,-0.00000928,0.06955702,-0.00010527,0.00041061,0.00048682,0.0001
 7700,0.00002376,-0.00010212,-0.00070176,-0.00009053,0.00027664,-0.0002
 0242,0.00022703,-0.00022179,-0.00030880,-0.00341266,-0.00835750,-0.000
 30540,0.00270320,0.00108536,0.00050011,-0.00143942,0.00244272,-0.11995
 777,-0.32838737,-0.11834359,-0.01039643,-0.01687250,-0.01531479,0.0002
 9094,0.00010001,-0.00048222,-0.00016068,-0.00005944,0.00025523,-0.0000
 5300,0.00002325,0.00002870,-0.00003562,0.00028502,0.00023430,-0.000402
 18,0.00008671,0.00066045,0.00001817,-0.00000639,0.00004177,0.13167081,
 0.34640773,0.00012491,0.00165721,0.00036294,0.00012693,0.00005181,-0.0
 0005732,-0.00030737,-0.00002401,0.00005661,0.00011832,0.00015439,-0.00
 026525,-0.01548162,-0.02951621,-0.00871068,0.00268229,-0.00333849,-0.0
 0617429,0.00098233,0.00385366,0.00236505,-0.04671053,-0.13204573,-0.12
 548057,0.00932864,0.02244417,0.01447073,0.00012512,0.00002159,-0.00015
 804,-0.00007114,-0.00000328,0.00007840,-0.00002404,0.00001869,0.000008
 10,0.00028583,-0.00034460,0.00013650,-0.00035083,-0.00021695,0.0000825
 1,-0.00000282,-0.00002048,0.00002875,0.04918733,0.13731098,0.12325727,
 -0.00003474,0.00008881,0.00025381,-0.00031955,-0.00126600,0.00008686,-
 0.00134223,-0.00228898,0.00018133,0.00014346,-0.00014492,-0.00018236,0
 .00019658,-0.00000584,0.00004302,-0.00006007,-0.00003916,-0.00001853,-
 0.00004304,0.00003130,-0.00002156,-0.00007063,0.00000695,0.00002365,0.
 00001281,0.00000609,-0.00000661,-0.00146173,0.03792681,0.00318715,-0.0
 0327841,-0.00390292,-0.00161032,-0.05033850,0.03579415,0.00411132,-0.0
 0027622,0.00031267,-0.00002044,0.00007459,-0.00020831,-0.00015641,-0.0
 0023148,0.00050439,0.00042030,0.00001163,-0.00001237,-0.00000609,0.053
 20784,-0.00006442,-0.00001785,0.00004399,0.00071948,0.00004026,-0.0001
 8164,-0.00034533,0.00055648,0.00063159,-0.00008197,0.00004869,-0.00006
 144,0.00006341,-0.00003646,-0.00000027,-0.00002391,-0.00000158,-0.0000
 0653,-0.00001365,0.00001851,-0.00000818,-0.00000945,0.00000562,0.00000
 820,0.00000328,0.00000045,-0.00000170,0.00151193,-0.00565378,0.0004783
 0,0.00073452,0.00088416,-0.00069088,0.03177746,-0.31622609,-0.02562807
 ,0.00000619,0.00000243,-0.00005678,-0.00003586,0.00001902,0.00013312,0
 .00008730,-0.00042528,-0.00011140,0.00000171,-0.00000387,-0.00000118,-
 0.03691875,0.34117979,0.00006473,0.00003215,-0.00013447,-0.00009979,0.
 00043015,-0.00004932,0.00142244,0.00050900,-0.00010353,0.00004105,-0.0
 0005236,-0.00002547,-0.00000832,0.00000530,0.00001670,0.00000209,-0.00
 000357,-0.00000492,0.00000033,-0.00000017,-0.00000273,0.00000119,-0.00
 000040,-0.00000358,0.,-0.00000228,0.00000168,0.00005943,0.00133405,-0.
 00164373,-0.00198451,-0.00092777,-0.00087129,0.00331369,-0.02498289,-0
 .04623679,0.00009370,-0.00006310,0.00008745,-0.00004870,0.00003027,0.0
 0001058,0.00015301,-0.00073687,-0.00028871,-0.00000123,0.00000024,0.00
 000007,-0.00325999,0.02788219,0.04693699,-0.00022015,-0.00001500,0.000
 14344,0.00066694,0.00015311,0.00152330,-0.00733696,0.00213164,-0.00118
 339,-0.00010266,-0.00000769,0.00012486,0.00022708,-0.00004668,0.000064
 69,-0.00007337,-0.00002802,-0.00003458,-0.00005417,0.00005764,-0.00004
 871,-0.00006037,0.00001616,0.00001917,0.00001791,0.00000458,-0.0000091
 6,-0.01455611,-0.01778843,0.02931015,0.00421190,0.00112235,-0.00116134
 ,-0.10525119,-0.05840357,0.09528988,-0.00021808,-0.00006571,-0.0000616
 7,-0.00053854,0.00017683,0.00004057,-0.00020795,-0.00006174,-0.0003803
 3,0.00001119,-0.00001260,-0.00000490,0.00197552,0.00185076,-0.00468180
 ,0.11396667,-0.00001736,-0.00000639,0.00005514,0.00045016,0.00032298,-
 0.00038169,0.00214707,0.00019923,0.00029235,0.00000645,0.00000602,-0.0
 0006187,0.00004270,0.00001106,0.00000427,-0.00001559,-0.00001161,-0.00
 000663,-0.00001149,-0.00000516,-0.00000280,-0.00000920,-0.00000252,0.0
 0000538,0.00000327,0.00000131,-0.00000050,0.00584754,0.00260722,-0.007
 98242,-0.00089028,-0.00024952,-0.00067964,-0.06166074,-0.10617613,0.10
 263950,0.00000524,-0.00001010,-0.00008273,0.00016564,-0.00001635,0.000
 03501,-0.00003797,-0.00043361,0.00007950,0.00000325,0.00000010,-0.0000
 0147,-0.01521028,-0.01270382,0.02538175,0.06250525,0.11148405,0.000065
 46,0.00000743,0.00002884,-0.00017653,0.00031982,0.00037794,0.00024760,
 0.00052708,0.00064085,0.00006882,-0.00004209,-0.00004832,-0.00001913,0
 .00002169,0.00000236,0.00000725,-0.00000235,-0.00000005,0.00000454,-0.
 00001136,-0.00000066,0.00000895,-0.00000675,-0.00000503,-0.00000245,-0
 .00000017,0.00000068,-0.00064135,-0.00191969,-0.00038118,-0.00128974,-
 0.00031121,0.00054381,0.10055593,0.10216833,-0.22122191,-0.00005373,-0
 .00003527,0.00001893,0.00006419,0.,-0.00006234,-0.00055740,-0.00026250
 ,0.00028319,-0.00000062,0.00000340,0.00000004,-0.00304873,-0.00265197,
 0.00392103,-0.10790309,-0.11032248,0.23369200,0.00015949,-0.00014654,0
 .00006684,-0.00007550,0.00043087,0.00015201,0.00129381,0.00097136,0.00
 190275,0.00040512,0.00012762,-0.00025656,0.00004422,-0.00000645,-0.000
 01341,-0.00001266,-0.00000629,0.00000113,-0.00000857,-0.00000274,0.000
 01132,-0.00000964,0.00000235,0.00001729,0.00000309,0.00000299,-0.00000
 227,-0.00678236,-0.01263431,-0.03153047,-0.00737711,0.00403677,0.00016
 146,-0.09890182,-0.03652069,-0.09641938,-0.00019593,-0.00009484,0.0000
 7453,0.00024773,0.00008558,-0.00004553,-0.00160647,-0.00062879,0.00069
 299,-0.00000201,-0.00000273,-0.00000234,0.00183416,0.00073730,0.004932
 69,0.00754233,0.00667634,0.01267001,0.10344214,0.00002149,0.00003216,0
 .00001392,-0.00007335,-0.00014589,0.00008170,-0.00044142,-0.00020230,0
 .00003002,-0.00000861,-0.00005686,0.00008913,-0.00003706,0.00003147,-0
 .00001728,0.00001313,0.00000108,0.00000848,0.00000767,-0.00002250,0.00
 000845,0.00000723,-0.00000754,-0.00000182,-0.00000190,0.00000191,-0.00
 000062,0.00382620,0.00071797,0.00883994,0.00325130,-0.00078925,0.00022
 678,-0.03665425,-0.06922816,-0.07098998,0.00000235,0.00002047,0.000000
 39,0.00000631,-0.00004023,-0.00002888,-0.00062970,0.00046513,0.0001584
 9,0.00000092,0.00000476,-0.00000009,-0.01467364,-0.00768667,-0.0288356
 7,0.00841111,0.00498325,0.01251809,0.03697220,0.07192122,0.00001059,0.
 00000907,-0.00008915,-0.00041359,0.00036294,0.00039608,0.00117654,0.00
 005693,-0.00003316,0.00014666,-0.00006218,0.00005494,0.00003406,-0.000
 04487,-0.00000072,-0.00001497,0.00000308,0.00000110,-0.00000573,0.0000
 1576,0.00000215,-0.00001848,0.00001294,0.00001559,0.00000442,0.0000002
 3,-0.00000252,0.00179959,0.00282635,-0.00092023,-0.00111577,-0.0010485
 6,0.00148297,-0.09853942,-0.07094228,-0.25460826,-0.00001345,0.0000108
 4,0.00009064,-0.00003376,-0.00002097,-0.00003270,0.00041876,-0.0003256
 5,0.00030295,0.00000109,-0.00000460,-0.00000081,0.00002362,0.00022266,
 -0.00160998,-0.01104710,-0.00897067,-0.01779018,0.10758693,0.07789896,
 0.27274129\\-0.00000144,-0.00000090,0.00000355,-0.00000151,0.00000223,
 -0.00000198,0.00000124,-0.00000018,-0.00000065,0.00000136,-0.00000045,
 -0.00000088,-0.00000101,0.00000317,0.00000174,0.00000017,-0.00000243,0
 .00000161,-0.00000050,-0.00000137,0.00000463,0.00000332,-0.00000122,0.
 00000117,-0.00000096,-0.00000302,0.00000087,-0.00000281,0.00000353,-0.
 00000410,-0.00000015,0.00000119,0.00000184,-0.00000016,0.00000115,-0.0
 0000156,0.00000189,-0.00000154,-0.00000108,0.00000028,-0.00000203,0.00
 000074,0.00000040,-0.00000079,-0.00000166,0.00000022,-0.00000271,0.000
 00367,0.00000017,0.00000189,-0.00000327,-0.00000087,0.00000269,-0.0000
 0239,0.00000036,0.00000080,-0.00000226\\\@
 The archive entry for this job was punched.


 WE ARE PERHAPS NOT FAR REMOVED FROM THE TIME WHEN WE SHALL BE ABLE TO SUBMIT
 THE BULK OF CHEMICAL PHENOMENA TO CALCULATION.

            -- JOSEPH LOUIS GAY-LUSSAC
               MEMOIRES DE LA SOCIETE D'ARCUEIL, 2, 207 (1808)
 Job cpu time:       0 days  0 hours 52 minutes 20.1 seconds.
 Elapsed time:       0 days  0 hours  3 minutes 35.0 seconds.
 File lengths (MBytes):  RWF=    170 Int=      0 D2E=      0 Chk=      7 Scr=      1
 Normal termination of Gaussian 16 at Fri May 20 23:27:55 2022.
