 Entering Gaussian System, Link 0=g16
 AtFile(1): /home/561/yj5695/Basis/6-31pGd.gbs
 Initial command:
 /apps/gaussian/g16c01/g16/l1.exe "/jobfs/40737448.gadi-pbs/Gau-1071021.inp" -scrdir="/jobfs/40737448.gadi-pbs/"
 Entering Link 1 = /apps/gaussian/g16c01/g16/l1.exe PID=   1071048.
  
 Copyright (c) 1988-2019, Gaussian, Inc.  All Rights Reserved.
  
 This is part of the Gaussian(R) 16 program.  It is based on
 the Gaussian(R) 09 system (copyright 2009, Gaussian, Inc.),
 the Gaussian(R) 03 system (copyright 2003, Gaussian, Inc.),
 the Gaussian(R) 98 system (copyright 1998, Gaussian, Inc.),
 the Gaussian(R) 94 system (copyright 1995, Gaussian, Inc.),
 the Gaussian 92(TM) system (copyright 1992, Gaussian, Inc.),
 the Gaussian 90(TM) system (copyright 1990, Gaussian, Inc.),
 the Gaussian 88(TM) system (copyright 1988, Gaussian, Inc.),
 the Gaussian 86(TM) system (copyright 1986, Carnegie Mellon
 University), and the Gaussian 82(TM) system (copyright 1983,
 Carnegie Mellon University). Gaussian is a federally registered
 trademark of Gaussian, Inc.
  
 This software contains proprietary and confidential information,
 including trade secrets, belonging to Gaussian, Inc.
  
 This software is provided under written license and may be
 used, copied, transmitted, or stored only in accord with that
 written license.
  
 The following legend is applicable only to US Government
 contracts under FAR:
  
                    RESTRICTED RIGHTS LEGEND
  
 Use, reproduction and disclosure by the US Government is
 subject to restrictions as set forth in subparagraphs (a)
 and (c) of the Commercial Computer Software - Restricted
 Rights clause in FAR 52.227-19.
  
 Gaussian, Inc.
 340 Quinnipiac St., Bldg. 40, Wallingford CT 06492
  
  
 ---------------------------------------------------------------
 Warning -- This program may not be used in any manner that
 competes with the business of Gaussian, Inc. or will provide
 assistance to any competitor of Gaussian, Inc.  The licensee
 of this program is prohibited from giving any competitor of
 Gaussian, Inc. access to this program.  By using this program,
 the user acknowledges that Gaussian, Inc. is engaged in the
 business of creating and licensing software in the field of
 computational chemistry and represents and warrants to the
 licensee that it is not a competitor of Gaussian, Inc. and that
 it will not use this program in any manner prohibited above.
 ---------------------------------------------------------------
  

 Cite this work as:
 Gaussian 16, Revision C.01,
 M. J. Frisch, G. W. Trucks, H. B. Schlegel, G. E. Scuseria, 
 M. A. Robb, J. R. Cheeseman, G. Scalmani, V. Barone, 
 G. A. Petersson, H. Nakatsuji, X. Li, M. Caricato, A. V. Marenich, 
 J. Bloino, B. G. Janesko, R. Gomperts, B. Mennucci, H. P. Hratchian, 
 J. V. Ortiz, A. F. Izmaylov, J. L. Sonnenberg, D. Williams-Young, 
 F. Ding, F. Lipparini, F. Egidi, J. Goings, B. Peng, A. Petrone, 
 T. Henderson, D. Ranasinghe, V. G. Zakrzewski, J. Gao, N. Rega, 
 G. Zheng, W. Liang, M. Hada, M. Ehara, K. Toyota, R. Fukuda, 
 J. Hasegawa, M. Ishida, T. Nakajima, Y. Honda, O. Kitao, H. Nakai, 
 T. Vreven, K. Throssell, J. A. Montgomery, Jr., J. E. Peralta, 
 F. Ogliaro, M. J. Bearpark, J. J. Heyd, E. N. Brothers, K. N. Kudin, 
 V. N. Staroverov, T. A. Keith, R. Kobayashi, J. Normand, 
 K. Raghavachari, A. P. Rendell, J. C. Burant, S. S. Iyengar, 
 J. Tomasi, M. Cossi, J. M. Millam, M. Klene, C. Adamo, R. Cammi, 
 J. W. Ochterski, R. L. Martin, K. Morokuma, O. Farkas, 
 J. B. Foresman, and D. J. Fox, Gaussian, Inc., Wallingford CT, 2019.
 
 ******************************************
 Gaussian 16:  ES64L-G16RevC.01  3-Jul-2019
                20-May-2022 
 ******************************************
 %nproc=16
 Will use up to   16 processors via shared memory.
 %mem=20gb
 --------------------------------------------------
 #M062X/gen 6D INT(grid=ultrafine) OPT Freq=noraman
 --------------------------------------------------
 1/18=20,19=15,26=4,38=1/1,3;
 2/9=110,12=2,17=6,18=5,40=1/2;
 3/5=7,8=2,11=2,25=1,30=1,71=1,74=-55,75=-5/1,2,3;
 4//1;
 5/5=2,38=5/2;
 6/7=2,8=2,9=2,10=2,28=1/1;
 7//1,2,3,16;
 1/18=20,19=15,26=4/3(2);
 2/9=110/2;
 99//99;
 2/9=110/2;
 3/5=7,6=1,8=2,11=2,25=1,30=1,71=1,74=-55,75=-5,82=7/1,2,3;
 4/5=5,16=3,69=1/1;
 5/5=2,38=5/2;
 7//1,2,3,16;
 1/18=20,19=15,26=4/3(-5);
 2/9=110/2;
 6/7=2,8=2,9=2,10=2,19=2,28=1/1;
 99/9=1/99;
 ------------
 HA.2.a2.freq
 ------------
 Symbolic Z-matrix:
 Charge =  0 Multiplicity = 1
 C                    -1.47357   0.57172  -0.91351 
 C                    -2.57367   0.27401  -1.7145 
 H                    -3.49141  -0.11144  -1.28145 
 C                    -2.47933   0.46924  -3.0888 
 H                    -3.31947   0.23937  -3.73532 
 C                    -1.2884    0.95887  -3.61958 
 Cl                   -1.16894   1.20083  -5.34235 
 C                    -0.189     1.25931  -2.81904 
 H                     0.72848   1.63577  -3.25855 
 C                    -0.28365   1.06393  -1.44479 
 H                     0.5635    1.28731  -0.80383 
 S                    -1.61176   0.37109   0.84776 
 O                    -2.64119  -0.63459   1.10757 
 O                    -0.26528   0.18552   1.38738 
 N                    -2.17478   1.781     1.49668 
 H                    -3.10768   2.01185   1.1481 
 H                    -1.52921   2.55674   1.33366 
 

 GradGradGradGradGradGradGradGradGradGradGradGradGradGradGradGradGradGrad
 Berny optimization.
 Initialization pass.
                           ----------------------------
                           !    Initial Parameters    !
                           ! (Angstroms and Degrees)  !
 --------------------------                            --------------------------
 ! Name  Definition              Value          Derivative Info.                !
 --------------------------------------------------------------------------------
 ! R1    R(1,2)                  1.393          estimate D2E/DX2                !
 ! R2    R(1,10)                 1.393          estimate D2E/DX2                !
 ! R3    R(1,12)                 1.778          estimate D2E/DX2                !
 ! R4    R(2,3)                  1.0855         estimate D2E/DX2                !
 ! R5    R(2,4)                  1.3913         estimate D2E/DX2                !
 ! R6    R(4,5)                  1.0847         estimate D2E/DX2                !
 ! R7    R(4,6)                  1.3928         estimate D2E/DX2                !
 ! R8    R(6,7)                  1.7438         estimate D2E/DX2                !
 ! R9    R(6,8)                  1.3928         estimate D2E/DX2                !
 ! R10   R(8,9)                  1.0847         estimate D2E/DX2                !
 ! R11   R(8,10)                 1.3913         estimate D2E/DX2                !
 ! R12   R(10,11)                1.0855         estimate D2E/DX2                !
 ! R13   R(12,13)                1.4624         estimate D2E/DX2                !
 ! R14   R(12,14)                1.4624         estimate D2E/DX2                !
 ! R15   R(12,15)                1.651          estimate D2E/DX2                !
 ! R16   R(15,16)                1.0223         estimate D2E/DX2                !
 ! R17   R(15,17)                1.0223         estimate D2E/DX2                !
 ! A1    A(2,1,10)             122.0606         estimate D2E/DX2                !
 ! A2    A(2,1,12)             118.9534         estimate D2E/DX2                !
 ! A3    A(10,1,12)            118.9507         estimate D2E/DX2                !
 ! A4    A(1,2,3)              120.9418         estimate D2E/DX2                !
 ! A5    A(1,2,4)              118.9763         estimate D2E/DX2                !
 ! A6    A(3,2,4)              120.0805         estimate D2E/DX2                !
 ! A7    A(2,4,5)              120.4295         estimate D2E/DX2                !
 ! A8    A(2,4,6)              118.9306         estimate D2E/DX2                !
 ! A9    A(5,4,6)              120.6394         estimate D2E/DX2                !
 ! A10   A(4,6,7)              118.9378         estimate D2E/DX2                !
 ! A11   A(4,6,8)              122.1248         estimate D2E/DX2                !
 ! A12   A(7,6,8)              118.9373         estimate D2E/DX2                !
 ! A13   A(6,8,9)              120.6391         estimate D2E/DX2                !
 ! A14   A(6,8,10)             118.9305         estimate D2E/DX2                !
 ! A15   A(9,8,10)             120.4299         estimate D2E/DX2                !
 ! A16   A(1,10,8)             118.9767         estimate D2E/DX2                !
 ! A17   A(1,10,11)            120.9402         estimate D2E/DX2                !
 ! A18   A(8,10,11)            120.0817         estimate D2E/DX2                !
 ! A19   A(1,12,13)            107.9562         estimate D2E/DX2                !
 ! A20   A(1,12,14)            107.9552         estimate D2E/DX2                !
 ! A21   A(1,12,15)            108.6314         estimate D2E/DX2                !
 ! A22   A(13,12,14)           119.6902         estimate D2E/DX2                !
 ! A23   A(13,12,15)           106.1037         estimate D2E/DX2                !
 ! A24   A(14,12,15)           106.0999         estimate D2E/DX2                !
 ! A25   A(12,15,16)           111.7163         estimate D2E/DX2                !
 ! A26   A(12,15,17)           111.7135         estimate D2E/DX2                !
 ! A27   A(16,15,17)           110.5201         estimate D2E/DX2                !
 ! D1    D(10,1,2,3)           179.8281         estimate D2E/DX2                !
 ! D2    D(10,1,2,4)             0.2648         estimate D2E/DX2                !
 ! D3    D(12,1,2,3)            -2.3588         estimate D2E/DX2                !
 ! D4    D(12,1,2,4)           178.0779         estimate D2E/DX2                !
 ! D5    D(2,1,10,8)            -0.2628         estimate D2E/DX2                !
 ! D6    D(2,1,10,11)         -179.8309         estimate D2E/DX2                !
 ! D7    D(12,1,10,8)         -178.0759         estimate D2E/DX2                !
 ! D8    D(12,1,10,11)           2.356          estimate D2E/DX2                !
 ! D9    D(2,1,12,13)           25.7116         estimate D2E/DX2                !
 ! D10   D(2,1,12,14)          156.4303         estimate D2E/DX2                !
 ! D11   D(2,1,12,15)          -88.9315         estimate D2E/DX2                !
 ! D12   D(10,1,12,13)        -156.4064         estimate D2E/DX2                !
 ! D13   D(10,1,12,14)         -25.6877         estimate D2E/DX2                !
 ! D14   D(10,1,12,15)          88.9504         estimate D2E/DX2                !
 ! D15   D(1,2,4,5)            179.6215         estimate D2E/DX2                !
 ! D16   D(1,2,4,6)             -0.1296         estimate D2E/DX2                !
 ! D17   D(3,2,4,5)              0.0543         estimate D2E/DX2                !
 ! D18   D(3,2,4,6)           -179.6968         estimate D2E/DX2                !
 ! D19   D(2,4,6,7)            179.8874         estimate D2E/DX2                !
 ! D20   D(2,4,6,8)              0.0007         estimate D2E/DX2                !
 ! D21   D(5,4,6,7)              0.1369         estimate D2E/DX2                !
 ! D22   D(5,4,6,8)           -179.7498         estimate D2E/DX2                !
 ! D23   D(4,6,8,9)            179.7504         estimate D2E/DX2                !
 ! D24   D(4,6,8,10)             0.0013         estimate D2E/DX2                !
 ! D25   D(7,6,8,9)             -0.1363         estimate D2E/DX2                !
 ! D26   D(7,6,8,10)          -179.8854         estimate D2E/DX2                !
 ! D27   D(6,8,10,1)             0.1256         estimate D2E/DX2                !
 ! D28   D(6,8,10,11)          179.6975         estimate D2E/DX2                !
 ! D29   D(9,8,10,1)          -179.624          estimate D2E/DX2                !
 ! D30   D(9,8,10,11)           -0.0521         estimate D2E/DX2                !
 ! D31   D(1,12,15,16)          62.2037         estimate D2E/DX2                !
 ! D32   D(1,12,15,17)         -62.1801         estimate D2E/DX2                !
 ! D33   D(13,12,15,16)        -53.643          estimate D2E/DX2                !
 ! D34   D(13,12,15,17)       -178.0267         estimate D2E/DX2                !
 ! D35   D(14,12,15,16)        178.0472         estimate D2E/DX2                !
 ! D36   D(14,12,15,17)         53.6634         estimate D2E/DX2                !
 --------------------------------------------------------------------------------
 Trust Radius=3.00D-01 FncErr=1.00D-07 GrdErr=1.00D-06 EigMax=2.50D+02 EigMin=1.00D-04
 Number of steps in this run=     90 maximum allowed number of steps=    102.
 GradGradGradGradGradGradGradGradGradGradGradGradGradGradGradGradGradGrad

                          Input orientation:                          
 ---------------------------------------------------------------------
 Center     Atomic      Atomic             Coordinates (Angstroms)
 Number     Number       Type             X           Y           Z
 ---------------------------------------------------------------------
      1          6           0       -1.473570    0.571717   -0.913508
      2          6           0       -2.573672    0.274007   -1.714501
      3          1           0       -3.491413   -0.111443   -1.281447
      4          6           0       -2.479330    0.469239   -3.088804
      5          1           0       -3.319470    0.239374   -3.735325
      6          6           0       -1.288398    0.958872   -3.619575
      7         17           0       -1.168942    1.200829   -5.342347
      8          6           0       -0.189002    1.259313   -2.819040
      9          1           0        0.728482    1.635771   -3.258545
     10          6           0       -0.283649    1.063932   -1.444789
     11          1           0        0.563499    1.287308   -0.803833
     12         16           0       -1.611759    0.371092    0.847759
     13          8           0       -2.641189   -0.634587    1.107571
     14          8           0       -0.265279    0.185520    1.387378
     15          7           0       -2.174783    1.780997    1.496680
     16          1           0       -3.107682    2.011852    1.148099
     17          1           0       -1.529208    2.556735    1.333657
 ---------------------------------------------------------------------
                    Distance matrix (angstroms):
                    1          2          3          4          5
     1  C    0.000000
     2  C    1.392999   0.000000
     3  H    2.161892   1.085521   0.000000
     4  C    2.398744   1.391303   2.151289   0.000000
     5  H    3.388282   2.154331   2.484785   1.084740   0.000000
     6  C    2.739887   2.397974   3.386103   1.392759   2.157853
     7  Cl   4.483659   3.999192   4.858687   2.707545   2.851611
     8  C    2.398741   2.806686   3.892183   2.437744   3.417556
     9  H    3.388281   3.891362   4.976865   3.417554   4.308499
    10  C    1.393000   2.437403   3.420225   2.806682   3.891358
    11  H    2.161886   3.420224   4.315892   3.892189   4.976872
    12  S    1.778035   2.738591   2.880878   4.032226   4.892677
    13  O    2.627406   2.965500   2.589201   4.342141   4.967646
    14  O    2.627392   3.867578   4.197470   5.001873   5.964317
    15  N    2.786228   3.569568   3.610102   4.779134   5.573221
    16  H    2.999088   3.391128   3.249357   4.552563   5.199458
    17  H    2.998857   3.948800   4.219976   4.981821   5.854040
                    6          7          8          9         10
     6  C    0.000000
     7  Cl   1.743776   0.000000
     8  C    1.392765   2.707542   0.000000
     9  H    2.157856   2.851600   1.084741   0.000000
    10  C    2.397969   3.999181   1.391293   2.154326   0.000000
    11  H    3.386118   4.858697   2.151301   2.484805   1.085532
    12  S    4.517425   6.261148   4.032194   4.892635   2.738555
    13  O    5.168661   6.865690   5.001835   5.964242   3.867493
    14  O    5.168600   6.865615   4.341981   4.967434   2.965319
    15  N    5.257151   6.936902   4.779218   5.573348   3.569708
    16  H    5.210497   6.822196   4.982288   5.854580   3.949276
    17  H    5.210151   6.821826   4.552400   5.199391   3.391113
                   11         12         13         14         15
    11  H    0.000000
    12  S    2.880791   0.000000
    13  O    4.197281   1.462401   0.000000
    14  O    2.588864   1.462406   2.528995   0.000000
    15  N    3.610302   1.651039   2.490781   2.490723   0.000000
    16  H    4.220494   2.240554   2.687545   3.387033   1.022302
    17  H    3.249574   2.240525   3.387057   2.687576   1.022308
                   16         17
    16  H    0.000000
    17  H    1.680152   0.000000
 Stoichiometry    C6H6ClNO2S
 Framework group  C1[X(C6H6ClNO2S)]
 Deg. of freedom    45
 Full point group                 C1      NOp   1
 Largest Abelian subgroup         C1      NOp   1
 Largest concise Abelian subgroup C1      NOp   1
                         Standard orientation:                         
 ---------------------------------------------------------------------
 Center     Atomic      Atomic             Coordinates (Angstroms)
 Number     Number       Type             X           Y           Z
 ---------------------------------------------------------------------
      1          6           0        0.476053   -0.000020   -0.102411
      2          6           0       -0.198099   -1.218719   -0.075261
      3          1           0        0.345555   -2.157968   -0.099929
      4          6           0       -1.588491   -1.218882   -0.024924
      5          1           0       -2.137568   -2.154257   -0.009123
      6          6           0       -2.261939   -0.000009   -0.000528
      7         17           0       -4.004680    0.000008    0.059565
      8          6           0       -1.588475    1.218862   -0.024909
      9          1           0       -2.137546    2.154242   -0.009087
     10          6           0       -0.198095    1.218684   -0.075289
     11          1           0        0.345596    2.157924   -0.099935
     12         16           0        2.254046    0.000018   -0.114563
     13          8           0        2.700941   -1.264350   -0.697895
     14          8           0        2.700867    1.264645   -0.697403
     15          7           0        2.792198   -0.000211    1.446309
     16          1           0        2.496801   -0.840450    1.948146
     17          1           0        2.496415    0.839702    1.948478
 ---------------------------------------------------------------------
 Rotational constants (GHZ):           2.5808819           0.3990186           0.3727073
 General basis read from cards:  (6D, 7F)
 There are   229 symmetry adapted cartesian basis functions of A   symmetry.
 There are   229 symmetry adapted basis functions of A   symmetry.
   229 basis functions,   424 primitive gaussians,   229 cartesian basis functions
    49 alpha electrons       49 beta electrons
       nuclear repulsion energy       796.0833414331 Hartrees.
 NAtoms=   17 NActive=   17 NUniq=   17 SFac= 1.00D+00 NAtFMM=   60 NAOKFM=F Big=F
 Integral buffers will be    131072 words long.
 Raffenetti 2 integral format.
 Two-electron integral symmetry is turned on.
 One-electron integrals computed using PRISM.
 NBasis=   229 RedAO= T EigKep=  1.79D-06  NBF=   229
 NBsUse=   229 1.00D-06 EigRej= -1.00D+00 NBFU=   229
 ExpMin= 4.05D-02 ExpMax= 2.52D+04 ExpMxC= 3.78D+03 IAcc=3 IRadAn=         5 AccDes= 0.00D+00
 Harris functional with IExCor= 1009 and IRadAn=       5 diagonalized for initial guess.
 HarFok:  IExCor= 1009 AccDes= 0.00D+00 IRadAn=         5 IDoV= 1 UseB2=F ITyADJ=14
 ICtDFT=  3500011 ScaDFX=  1.000000  1.000000  1.000000  1.000000
 FoFCou: FMM=F IPFlag=           0 FMFlag=      100000 FMFlg1=           0
         NFxFlg=           0 DoJE=T BraDBF=F KetDBF=T FulRan=T
         wScrn=  0.000000 ICntrl=       500 IOpCl=  0 I1Cent=   200000004 NGrid=           0
         NMat0=    1 NMatS0=      1 NMatT0=    0 NMatD0=    1 NMtDS0=    0 NMtDT0=    0
 Petite list used in FoFCou.
 Requested convergence on RMS density matrix=1.00D-08 within 128 cycles.
 Requested convergence on MAX density matrix=1.00D-06.
 Requested convergence on             energy=1.00D-06.
 No special actions if energy rises.
 SCF Done:  E(RM062X) =  -1295.53514923     A.U. after   15 cycles
            NFock= 15  Conv=0.99D-08     -V/T= 2.0049

 **********************************************************************

            Population analysis using the SCF Density.

 **********************************************************************

 Orbital symmetries:
       Occupied  (A) (A) (A) (A) (A) (A) (A) (A) (A) (A) (A) (A)
                 (A) (A) (A) (A) (A) (A) (A) (A) (A) (A) (A) (A)
                 (A) (A) (A) (A) (A) (A) (A) (A) (A) (A) (A) (A)
                 (A) (A) (A) (A) (A) (A) (A) (A) (A) (A) (A) (A)
                 (A)
       Virtual   (A) (A) (A) (A) (A) (A) (A) (A) (A) (A) (A) (A)
                 (A) (A) (A) (A) (A) (A) (A) (A) (A) (A) (A) (A)
                 (A) (A) (A) (A) (A) (A) (A) (A) (A) (A) (A) (A)
                 (A) (A) (A) (A) (A) (A) (A) (A) (A) (A) (A) (A)
                 (A) (A) (A) (A) (A) (A) (A) (A) (A) (A) (A) (A)
                 (A) (A) (A) (A) (A) (A) (A) (A) (A) (A) (A) (A)
                 (A) (A) (A) (A) (A) (A) (A) (A) (A) (A) (A) (A)
                 (A) (A) (A) (A) (A) (A) (A) (A) (A) (A) (A) (A)
                 (A) (A) (A) (A) (A) (A) (A) (A) (A) (A) (A) (A)
                 (A) (A) (A) (A) (A) (A) (A) (A) (A) (A) (A) (A)
                 (A) (A) (A) (A) (A) (A) (A) (A) (A) (A) (A) (A)
                 (A) (A) (A) (A) (A) (A) (A) (A) (A) (A) (A) (A)
                 (A) (A) (A) (A) (A) (A) (A) (A) (A) (A) (A) (A)
                 (A) (A) (A) (A) (A) (A) (A) (A) (A) (A) (A) (A)
                 (A) (A) (A) (A) (A) (A) (A) (A) (A) (A) (A) (A)
 The electronic state is 1-A.
 Alpha  occ. eigenvalues -- -102.69392 -90.17649 -19.64917 -19.64916 -14.81875
 Alpha  occ. eigenvalues --  -10.65217 -10.61590 -10.60458 -10.60454 -10.60018
 Alpha  occ. eigenvalues --  -10.60018  -9.84062  -8.48624  -7.56467  -7.55800
 Alpha  occ. eigenvalues --   -7.55778  -6.40842  -6.40777  -6.40706  -1.25079
 Alpha  occ. eigenvalues --   -1.13266  -1.04404  -1.03083  -0.97401  -0.89422
 Alpha  occ. eigenvalues --   -0.87746  -0.76941  -0.74269  -0.70447  -0.65819
 Alpha  occ. eigenvalues --   -0.63056  -0.59880  -0.57986  -0.57046  -0.55494
 Alpha  occ. eigenvalues --   -0.53729  -0.52621  -0.50330  -0.47687  -0.45930
 Alpha  occ. eigenvalues --   -0.44073  -0.42381  -0.40599  -0.40153  -0.40003
 Alpha  occ. eigenvalues --   -0.38508  -0.38490  -0.35262  -0.33036
 Alpha virt. eigenvalues --   -0.03523  -0.02253  -0.00813   0.01331   0.02199
 Alpha virt. eigenvalues --    0.02278   0.04549   0.04892   0.05124   0.05761
 Alpha virt. eigenvalues --    0.06672   0.07400   0.07960   0.08111   0.08608
 Alpha virt. eigenvalues --    0.09210   0.10013   0.10915   0.11056   0.12000
 Alpha virt. eigenvalues --    0.12631   0.12718   0.13657   0.13922   0.14332
 Alpha virt. eigenvalues --    0.14488   0.15757   0.16331   0.16429   0.16820
 Alpha virt. eigenvalues --    0.18202   0.18884   0.20248   0.20422   0.20620
 Alpha virt. eigenvalues --    0.21465   0.21663   0.22477   0.22964   0.23476
 Alpha virt. eigenvalues --    0.23634   0.24584   0.24696   0.26182   0.27167
 Alpha virt. eigenvalues --    0.27919   0.28054   0.29098   0.31034   0.31211
 Alpha virt. eigenvalues --    0.31927   0.32660   0.33062   0.33699   0.34918
 Alpha virt. eigenvalues --    0.35965   0.36001   0.38277   0.38492   0.39914
 Alpha virt. eigenvalues --    0.44694   0.46405   0.52378   0.54628   0.56130
 Alpha virt. eigenvalues --    0.58308   0.59031   0.63613   0.64937   0.66358
 Alpha virt. eigenvalues --    0.68017   0.68462   0.68465   0.69676   0.71531
 Alpha virt. eigenvalues --    0.72849   0.73175   0.74155   0.75632   0.77540
 Alpha virt. eigenvalues --    0.79006   0.80163   0.81716   0.85544   0.87093
 Alpha virt. eigenvalues --    0.91947   0.92266   0.93891   0.94382   0.96455
 Alpha virt. eigenvalues --    0.97597   0.98007   0.98577   0.99912   1.01645
 Alpha virt. eigenvalues --    1.03079   1.03157   1.05815   1.08498   1.09475
 Alpha virt. eigenvalues --    1.10156   1.12207   1.13196   1.13812   1.15527
 Alpha virt. eigenvalues --    1.16946   1.19061   1.21278   1.24308   1.26289
 Alpha virt. eigenvalues --    1.31026   1.31596   1.35205   1.36668   1.37464
 Alpha virt. eigenvalues --    1.40076   1.40262   1.41245   1.41704   1.42187
 Alpha virt. eigenvalues --    1.47591   1.47888   1.48034   1.51169   1.53633
 Alpha virt. eigenvalues --    1.57216   1.59982   1.69417   1.71431   1.79479
 Alpha virt. eigenvalues --    1.80446   1.81394   1.82392   1.85334   1.87245
 Alpha virt. eigenvalues --    1.90288   1.91489   1.93994   1.98487   2.00795
 Alpha virt. eigenvalues --    2.02358   2.03733   2.10874   2.11253   2.13391
 Alpha virt. eigenvalues --    2.15394   2.15548   2.17457   2.17866   2.18557
 Alpha virt. eigenvalues --    2.23674   2.28435   2.29101   2.32298   2.34669
 Alpha virt. eigenvalues --    2.43435   2.47629   2.54475   2.62267   2.65325
 Alpha virt. eigenvalues --    2.65469   2.72426   2.75394   2.75414   2.83835
 Alpha virt. eigenvalues --    2.91242   2.94530   3.02579   3.32997   3.87363
 Alpha virt. eigenvalues --    4.07235   4.21000   4.23492   4.24824   4.28371
 Alpha virt. eigenvalues --    4.29607   4.36773   4.38516   4.45184   4.67101
          Condensed to atoms (all electrons):
               1          2          3          4          5          6
     1  C   19.256176  -3.316773   0.129383  -1.018630  -0.004596  -3.060767
     2  C   -3.316773  25.754620   0.145294  -5.378917   0.011427   0.982719
     3  H    0.129383   0.145294   0.433071  -0.011941  -0.003829  -0.020435
     4  C   -1.018630  -5.378917  -0.011941  13.917178   0.201436  -0.316130
     5  H   -0.004596   0.011427  -0.003829   0.201436   0.450549   0.067444
     6  C   -3.060767   0.982719  -0.020435  -0.316130   0.067444   7.810328
     7  Cl  -0.047858   0.042460   0.001016  -0.038540  -0.001066  -0.170881
     8  C   -1.019428   0.777543  -0.034008  -1.871451   0.068693  -0.315957
     9  H   -0.004623  -0.034079   0.000011   0.068718  -0.000121   0.067466
    10  C   -3.318088 -13.052107   0.099483   0.776749  -0.034055   0.983217
    11  H    0.129276   0.099416  -0.000119  -0.033990   0.000011  -0.020412
    12  S    0.019658  -0.061459  -0.002633  -0.198347   0.000393  -0.187995
    13  O    0.036980  -0.327867  -0.000808  -0.071928   0.000167  -0.017002
    14  O    0.036891   0.098140   0.001228   0.119692   0.000014  -0.017015
    15  N   -0.687259   0.195027   0.001157   0.226225  -0.000043   0.044510
    16  H    0.065449  -0.136862  -0.000046  -0.019407   0.000001  -0.002630
    17  H    0.065494   0.071033   0.000013  -0.003898   0.000000  -0.002635
               7          8          9         10         11         12
     1  C   -0.047858  -1.019428  -0.004623  -3.318088   0.129276   0.019658
     2  C    0.042460   0.777543  -0.034079 -13.052107   0.099416  -0.061459
     3  H    0.001016  -0.034008   0.000011   0.099483  -0.000119  -0.002633
     4  C   -0.038540  -1.871451   0.068718   0.776749  -0.033990  -0.198347
     5  H   -0.001066   0.068693  -0.000121  -0.034055   0.000011   0.000393
     6  C   -0.170881  -0.315957   0.067466   0.983217  -0.020412  -0.187995
     7  Cl  16.977815  -0.038650  -0.001067   0.042545   0.001016  -0.016932
     8  C   -0.038650  13.916402   0.201394  -5.378585  -0.011913  -0.198089
     9  H   -0.001067   0.201394   0.450550   0.011471  -0.003829   0.000394
    10  C    0.042545  -5.378585   0.011471  25.756620   0.145416  -0.062431
    11  H    0.001016  -0.011913  -0.003829   0.145416   0.433052  -0.002652
    12  S   -0.016932  -0.198089   0.000394  -0.062431  -0.002652  15.382474
    13  O   -0.000341   0.119718   0.000014   0.098243   0.001228   0.311753
    14  O   -0.000341  -0.071768   0.000168  -0.327793  -0.000809   0.311656
    15  N    0.001541   0.226120  -0.000042   0.195452   0.001161  -0.834644
    16  H   -0.000033  -0.003893   0.000000   0.070940   0.000012   0.075396
    17  H   -0.000034  -0.019411   0.000001  -0.136986  -0.000045   0.075403
              13         14         15         16         17
     1  C    0.036980   0.036891  -0.687259   0.065449   0.065494
     2  C   -0.327867   0.098140   0.195027  -0.136862   0.071033
     3  H   -0.000808   0.001228   0.001157  -0.000046   0.000013
     4  C   -0.071928   0.119692   0.226225  -0.019407  -0.003898
     5  H    0.000167   0.000014  -0.000043   0.000001   0.000000
     6  C   -0.017002  -0.017015   0.044510  -0.002630  -0.002635
     7  Cl  -0.000341  -0.000341   0.001541  -0.000033  -0.000034
     8  C    0.119718  -0.071768   0.226120  -0.003893  -0.019411
     9  H    0.000014   0.000168  -0.000042   0.000000   0.000001
    10  C    0.098243  -0.327793   0.195452   0.070940  -0.136986
    11  H    0.001228  -0.000809   0.001161   0.000012  -0.000045
    12  S    0.311753   0.311656  -0.834644   0.075396   0.075403
    13  O    8.713031  -0.182009  -0.134850  -0.007237   0.009599
    14  O   -0.182009   8.713135  -0.134801   0.009601  -0.007246
    15  N   -0.134850  -0.134801   8.405052   0.207934   0.207943
    16  H   -0.007237   0.009601   0.207934   0.319989  -0.021896
    17  H    0.009599  -0.007246   0.207943  -0.021896   0.319979
 Mulliken charges:
               1
     1  C   -1.261285
     2  C    0.130384
     3  H    0.263162
     4  C   -0.346819
     5  H    0.243576
     6  C    0.176176
     7  Cl   0.249351
     8  C   -0.346717
     9  H    0.243576
    10  C    0.129906
    11  H    0.263184
    12  S    1.388056
    13  O   -0.548692
    14  O   -0.548743
    15  N   -0.920483
    16  H    0.442681
    17  H    0.442687
 Sum of Mulliken charges =  -0.00000
 Mulliken charges with hydrogens summed into heavy atoms:
               1
     1  C   -1.261285
     2  C    0.393546
     4  C   -0.103243
     6  C    0.176176
     7  Cl   0.249351
     8  C   -0.103141
    10  C    0.393090
    12  S    1.388056
    13  O   -0.548692
    14  O   -0.548743
    15  N   -0.035115
 Electronic spatial extent (au):  <R**2>=           2760.4927
 Charge=             -0.0000 electrons
 Dipole moment (field-independent basis, Debye):
    X=             -3.4951    Y=             -0.0011    Z=              4.0312  Tot=              5.3354
 Quadrupole moment (field-independent basis, Debye-Ang):
   XX=            -97.1636   YY=            -73.5393   ZZ=            -76.4361
   XY=             -0.0034   XZ=             10.2586   YZ=             -0.0018
 Traceless Quadrupole moment (field-independent basis, Debye-Ang):
   XX=            -14.7839   YY=              8.8404   ZZ=              5.9436
   XY=             -0.0034   XZ=             10.2586   YZ=             -0.0018
 Octapole moment (field-independent basis, Debye-Ang**2):
  XXX=            -38.8461  YYY=             -0.0055  ZZZ=             13.5524  XYY=            -14.8616
  XXY=             -0.0094  XXZ=             20.4422  XZZ=             15.0911  YZZ=              0.0006
  YYZ=              8.4302  XYZ=             -0.0063
 Hexadecapole moment (field-independent basis, Debye-Ang**3):
 XXXX=          -3093.8522 YYYY=           -417.2566 ZZZZ=           -192.3180 XXXY=             -0.0265
 XXXZ=             29.8257 YYYX=             -0.0149 YYYZ=             -0.0047 ZZZX=             28.8231
 ZZZY=             -0.0022 XXYY=           -572.7667 XXZZ=           -516.1539 YYZZ=           -112.3476
 XXYZ=             -0.0182 YYXZ=             22.9028 ZZXY=             -0.0015
 N-N= 7.960833414331D+02 E-N=-4.648481799745D+03  KE= 1.289187323997D+03
 Calling FoFJK, ICntrl=      2127 FMM=F ISym2X=0 I1Cent= 0 IOpClX= 0 NMat=1 NMatS=1 NMatT=0.
 ***** Axes restored to original set *****
 -------------------------------------------------------------------
 Center     Atomic                   Forces (Hartrees/Bohr)
 Number     Number              X              Y              Z
 -------------------------------------------------------------------
      1        6          -0.001187847    0.003109045    0.000988064
      2        6           0.000835302    0.001033952   -0.001957096
      3        1           0.001021293   -0.001066997    0.001833316
      4        6           0.000345454   -0.000001847    0.001508007
      5        1           0.000824807    0.000294965   -0.000916750
      6        6           0.000446827    0.000592793   -0.005491175
      7       17          -0.000145067   -0.000231449    0.001904220
      8        6          -0.000578854   -0.000323753    0.001389003
      9        1          -0.000620311   -0.000203876   -0.001086796
     10        6          -0.000858585    0.000457415   -0.002144578
     11        1          -0.000518413   -0.001599296    0.001646312
     12       16           0.009193222   -0.032544686    0.017404142
     13        8           0.003147665    0.012353645   -0.007116184
     14        8          -0.008459915    0.008341874   -0.008488768
     15        7          -0.004146059    0.013675682   -0.004892641
     16        1           0.001925573   -0.001399704    0.002892868
     17        1          -0.001225092   -0.002487762    0.002528056
 -------------------------------------------------------------------
 Cartesian Forces:  Max     0.032544686 RMS     0.006576666

 GradGradGradGradGradGradGradGradGradGradGradGradGradGradGradGradGradGrad
 Berny optimization.
 FormGI is forming the generalized inverse of G from B-inverse, IUseBI=4.
 Internal  Forces:  Max     0.011979690 RMS     0.002903991
 Search for a local minimum.
 Step number   1 out of a maximum of   90
 All quantities printed in internal units (Hartrees-Bohrs-Radians)
 Mixed Optimization -- RFO/linear search
 Second derivative matrix not updated -- first step.
 ITU=  0
     Eigenvalues ---    0.00661   0.01598   0.01944   0.02182   0.02185
     Eigenvalues ---    0.02189   0.02190   0.02193   0.02194   0.02197
     Eigenvalues ---    0.02197   0.04594   0.09490   0.10399   0.14272
     Eigenvalues ---    0.15999   0.16000   0.16000   0.16000   0.16000
     Eigenvalues ---    0.16000   0.19803   0.22000   0.22999   0.23995
     Eigenvalues ---    0.24983   0.25000   0.25000   0.27926   0.31098
     Eigenvalues ---    0.35334   0.35335   0.35428   0.35428   0.42492
     Eigenvalues ---    0.42626   0.42704   0.43972   0.43973   0.46818
     Eigenvalues ---    0.46821   0.46914   0.47094   0.90606   0.90609
 RFO step:  Lambda=-3.04006449D-03 EMin= 6.60858735D-03
 Linear search not attempted -- first point.
 Iteration  1 RMS(Cart)=  0.01566390 RMS(Int)=  0.00039036
 Iteration  2 RMS(Cart)=  0.00069442 RMS(Int)=  0.00019500
 Iteration  3 RMS(Cart)=  0.00000019 RMS(Int)=  0.00019500
 Variable       Old X    -DE/DX   Delta X   Delta X   Delta X     New X
                                 (Linear)    (Quad)   (Total)
    R1        2.63239  -0.00090   0.00000  -0.00203  -0.00201   2.63037
    R2        2.63239  -0.00090   0.00000  -0.00202  -0.00201   2.63038
    R3        3.36000   0.00251   0.00000   0.00888   0.00888   3.36888
    R4        2.05134   0.00025   0.00000   0.00069   0.00069   2.05203
    R5        2.62918   0.00135   0.00000   0.00284   0.00284   2.63202
    R6        2.04986  -0.00015   0.00000  -0.00043  -0.00043   2.04943
    R7        2.63193  -0.00006   0.00000  -0.00002  -0.00003   2.63190
    R8        3.29526  -0.00192   0.00000  -0.00612  -0.00612   3.28914
    R9        2.63195  -0.00006   0.00000  -0.00003  -0.00004   2.63190
   R10        2.04986  -0.00016   0.00000  -0.00043  -0.00043   2.04943
   R11        2.62916   0.00135   0.00000   0.00285   0.00285   2.63202
   R12        2.05136   0.00024   0.00000   0.00067   0.00067   2.05203
   R13        2.76354  -0.01198   0.00000  -0.01317  -0.01317   2.75037
   R14        2.76355  -0.01198   0.00000  -0.01318  -0.01318   2.75037
   R15        3.12001   0.00974   0.00000   0.02275   0.02275   3.14277
   R16        1.93187  -0.00306   0.00000  -0.00691  -0.00691   1.92496
   R17        1.93188  -0.00307   0.00000  -0.00692  -0.00692   1.92496
    A1        2.13036  -0.00165   0.00000  -0.00697  -0.00702   2.12334
    A2        2.07613   0.00083   0.00000   0.00389   0.00377   2.07990
    A3        2.07608   0.00084   0.00000   0.00393   0.00381   2.07989
    A4        2.11083  -0.00261   0.00000  -0.01492  -0.01499   2.09584
    A5        2.07653   0.00102   0.00000   0.00396   0.00394   2.08047
    A6        2.09580   0.00159   0.00000   0.01083   0.01076   2.10656
    A7        2.10189   0.00088   0.00000   0.00613   0.00611   2.10800
    A8        2.07573   0.00081   0.00000   0.00350   0.00350   2.07923
    A9        2.10555  -0.00169   0.00000  -0.00966  -0.00967   2.09588
   A10        2.07586   0.00101   0.00000   0.00393   0.00393   2.07978
   A11        2.13148  -0.00201   0.00000  -0.00789  -0.00790   2.12358
   A12        2.07585   0.00101   0.00000   0.00394   0.00393   2.07978
   A13        2.10555  -0.00169   0.00000  -0.00966  -0.00967   2.09588
   A14        2.07573   0.00081   0.00000   0.00350   0.00350   2.07923
   A15        2.10190   0.00088   0.00000   0.00612   0.00611   2.10801
   A16        2.07654   0.00102   0.00000   0.00395   0.00393   2.08047
   A17        2.11081  -0.00261   0.00000  -0.01491  -0.01498   2.09583
   A18        2.09582   0.00159   0.00000   0.01083   0.01076   2.10658
   A19        1.88419  -0.00215   0.00000  -0.01517  -0.01563   1.86856
   A20        1.88417  -0.00215   0.00000  -0.01517  -0.01563   1.86855
   A21        1.89598  -0.00353   0.00000  -0.03373  -0.03439   1.86158
   A22        2.08899   0.00773   0.00000   0.07036   0.07048   2.15947
   A23        1.85186  -0.00039   0.00000  -0.00748  -0.00812   1.84374
   A24        1.85179  -0.00038   0.00000  -0.00739  -0.00803   1.84376
   A25        1.94982   0.00113   0.00000   0.01557   0.01520   1.96502
   A26        1.94977   0.00113   0.00000   0.01562   0.01525   1.96501
   A27        1.92894   0.00045   0.00000   0.01786   0.01726   1.94619
    D1        3.13859  -0.00078   0.00000  -0.03378  -0.03362   3.10497
    D2        0.00462  -0.00030   0.00000  -0.01450  -0.01452  -0.00990
    D3       -0.04117  -0.00026   0.00000  -0.00760  -0.00754  -0.04871
    D4        3.10805   0.00022   0.00000   0.01168   0.01157   3.11961
    D5       -0.00459   0.00030   0.00000   0.01446   0.01447   0.00989
    D6       -3.13864   0.00078   0.00000   0.03382   0.03367  -3.10497
    D7       -3.10801  -0.00022   0.00000  -0.01172  -0.01161  -3.11962
    D8        0.04112   0.00026   0.00000   0.00764   0.00759   0.04870
    D9        0.44875  -0.00360   0.00000  -0.04645  -0.04622   0.40254
   D10        2.73022   0.00315   0.00000   0.02123   0.02092   2.75115
   D11       -1.55215  -0.00022   0.00000  -0.01256  -0.01259  -1.56474
   D12       -2.72981  -0.00316   0.00000  -0.02134  -0.02103  -2.75084
   D13       -0.44834   0.00360   0.00000   0.04634   0.04611  -0.40223
   D14        1.55248   0.00023   0.00000   0.01256   0.01259   1.56507
   D15        3.13499  -0.00011   0.00000  -0.00376  -0.00381   3.13117
   D16       -0.00226   0.00008   0.00000   0.00429   0.00430   0.00204
   D17        0.00095   0.00038   0.00000   0.01546   0.01553   0.01648
   D18       -3.13630   0.00058   0.00000   0.02351   0.02364  -3.11266
   D19        3.13963  -0.00007   0.00000  -0.00287  -0.00286   3.13676
   D20        0.00001   0.00013   0.00000   0.00567   0.00572   0.00573
   D21        0.00239   0.00012   0.00000   0.00516   0.00515   0.00754
   D22       -3.13723   0.00032   0.00000   0.01370   0.01373  -3.12349
   D23        3.13724  -0.00032   0.00000  -0.01371  -0.01374   3.12350
   D24        0.00002  -0.00013   0.00000  -0.00572  -0.00576  -0.00574
   D25       -0.00238  -0.00012   0.00000  -0.00517  -0.00516  -0.00754
   D26       -3.13959   0.00006   0.00000   0.00282   0.00282  -3.13678
   D27        0.00219  -0.00008   0.00000  -0.00420  -0.00421  -0.00202
   D28        3.13631  -0.00058   0.00000  -0.02351  -0.02364   3.11267
   D29       -3.13503   0.00012   0.00000   0.00382   0.00386  -3.13117
   D30       -0.00091  -0.00038   0.00000  -0.01549  -0.01557  -0.01648
   D31        1.08566   0.00115   0.00000   0.02346   0.02361   1.10927
   D32       -1.08525  -0.00115   0.00000  -0.02357  -0.02372  -1.10897
   D33       -0.93625   0.00556   0.00000   0.06125   0.06125  -0.87500
   D34       -3.10715   0.00326   0.00000   0.01422   0.01392  -3.09323
   D35        3.10751  -0.00326   0.00000  -0.01428  -0.01398   3.09353
   D36        0.93660  -0.00556   0.00000  -0.06131  -0.06131   0.87529
         Item               Value     Threshold  Converged?
 Maximum Force            0.011980     0.000450     NO 
 RMS     Force            0.002904     0.000300     NO 
 Maximum Displacement     0.057214     0.001800     NO 
 RMS     Displacement     0.015723     0.001200     NO 
 Predicted change in Energy=-1.554480D-03
 GradGradGradGradGradGradGradGradGradGradGradGradGradGradGradGradGradGrad

                          Input orientation:                          
 ---------------------------------------------------------------------
 Center     Atomic      Atomic             Coordinates (Angstroms)
 Number     Number       Type             X           Y           Z
 ---------------------------------------------------------------------
      1          6           0       -1.476055    0.576185   -0.905242
      2          6           0       -2.570694    0.274195   -1.710254
      3          1           0       -3.474321   -0.135527   -1.268965
      4          6           0       -2.478453    0.473906   -3.085577
      5          1           0       -3.312265    0.238183   -3.737770
      6          6           0       -1.291645    0.968682   -3.620754
      7         17           0       -1.172986    1.211710   -5.340150
      8          6           0       -0.193170    1.262225   -2.816441
      9          1           0        0.724213    1.630590   -3.262402
     10          6           0       -0.286895    1.062017   -1.441292
     11          1           0        0.562531    1.257032   -0.793532
     12         16           0       -1.606530    0.352275    0.858554
     13          8           0       -2.663702   -0.621310    1.088335
     14          8           0       -0.252161    0.210998    1.372374
     15          7           0       -2.174708    1.786219    1.480496
     16          1           0       -3.110340    2.013488    1.147961
     17          1           0       -1.528186    2.559659    1.334090
 ---------------------------------------------------------------------
                    Distance matrix (angstroms):
                    1          2          3          4          5
     1  C    0.000000
     2  C    1.391933   0.000000
     3  H    2.152184   1.085887   0.000000
     4  C    2.401900   1.392805   2.159454   0.000000
     5  H    3.392511   2.159177   2.502183   1.084511   0.000000
     6  C    2.749921   2.401726   3.393267   1.392742   2.151796
     7  Cl   4.490451   4.001083   4.866799   2.707710   2.844625
     8  C    2.401901   2.802227   3.887718   2.432365   3.409731
     9  H    3.392514   3.886564   4.971986   3.409729   4.296269
    10  C    1.391936   2.430790   3.409325   2.802226   3.886564
    11  H    2.152177   3.409317   4.296677   3.887716   4.971985
    12  S    1.782732   2.744901   2.872791   4.041189   4.903951
    13  O    2.611292   2.939844   2.539675   4.319184   4.944760
    14  O    2.611285   3.857743   4.180798   4.989872   5.956387
    15  N    2.764786   3.553013   3.597449   4.760614   5.560643
    16  H    2.992051   3.389064   3.254579   4.548894   5.202197
    17  H    2.991905   3.946923   4.222247   4.978637   5.856275
                    6          7          8          9         10
     6  C    0.000000
     7  Cl   1.740536   0.000000
     8  C    1.392744   2.707711   0.000000
     9  H    2.151795   2.844620   1.084511   0.000000
    10  C    2.401726   4.001082   1.392804   2.159179   0.000000
    11  H    3.393273   4.866807   2.159461   2.502200   1.085886
    12  S    4.532473   6.272999   4.041186   4.903950   2.744898
    13  O    5.156174   6.848913   4.989841   5.956335   3.857696
    14  O    5.156155   6.848892   4.319112   4.944663   2.939755
    15  N    5.241271   6.917710   4.760749   5.560849   3.553189
    16  H    5.209598   6.818487   4.979032   5.856766   3.947325
    17  H    5.209380   6.818256   4.548902   5.202327   3.389171
                   11         12         13         14         15
    11  H    0.000000
    12  S    2.872768   0.000000
    13  O    4.180690   1.455431   0.000000
    14  O    2.539500   1.455433   2.566894   0.000000
    15  N    3.597738   1.663080   2.487790   2.487811   0.000000
    16  H    4.222748   2.259387   2.673051   3.386520   1.018644
    17  H    3.254952   2.259385   3.386497   2.673185   1.018644
                   16         17
    16  H    0.000000
    17  H    1.684089   0.000000
 Stoichiometry    C6H6ClNO2S
 Framework group  C1[X(C6H6ClNO2S)]
 Deg. of freedom    45
 Full point group                 C1      NOp   1
 Largest Abelian subgroup         C1      NOp   1
 Largest concise Abelian subgroup C1      NOp   1
                         Standard orientation:                         
 ---------------------------------------------------------------------
 Center     Atomic      Atomic             Coordinates (Angstroms)
 Number     Number       Type             X           Y           Z
 ---------------------------------------------------------------------
      1          6           0        0.484714    0.000014   -0.099241
      2          6           0       -0.193432   -1.215384   -0.079180
      3          1           0        0.359907   -2.148328   -0.130004
      4          6           0       -1.585218   -1.216181   -0.025926
      5          1           0       -2.139809   -2.148138   -0.018935
      6          6           0       -2.263290   -0.000004    0.003434
      7         17           0       -4.002818   -0.000014    0.062653
      8          6           0       -1.585233    1.216184   -0.025895
      9          1           0       -2.139840    2.148132   -0.018877
     10          6           0       -0.193447    1.215406   -0.079136
     11          1           0        0.359895    2.148349   -0.129923
     12         16           0        2.267123    0.000032   -0.133206
     13          8           0        2.683811   -1.283315   -0.678799
     14          8           0        2.683782    1.283579   -0.678355
     15          7           0        2.774209   -0.000255    1.450681
     16          1           0        2.494626   -0.842455    1.950850
     17          1           0        2.494375    0.841634    1.951232
 ---------------------------------------------------------------------
 Rotational constants (GHZ):           2.5728781           0.4001357           0.3732623
 Basis read from rwf:  (6D, 7F)
 There are   229 symmetry adapted cartesian basis functions of A   symmetry.
 There are   229 symmetry adapted basis functions of A   symmetry.
   229 basis functions,   424 primitive gaussians,   229 cartesian basis functions
    49 alpha electrons       49 beta electrons
       nuclear repulsion energy       796.5701514650 Hartrees.
 NAtoms=   17 NActive=   17 NUniq=   17 SFac= 1.00D+00 NAtFMM=   60 NAOKFM=F Big=F
 Integral buffers will be    131072 words long.
 Raffenetti 2 integral format.
 Two-electron integral symmetry is turned on.
 One-electron integrals computed using PRISM.
 NBasis=   229 RedAO= T EigKep=  1.79D-06  NBF=   229
 NBsUse=   229 1.00D-06 EigRej= -1.00D+00 NBFU=   229
 Initial guess from the checkpoint file:  "/jobfs/40737448.gadi-pbs/Gau-1071048.chk"
 B after Tr=    -0.000000   -0.000000   -0.000000
         Rot=    1.000000   -0.000004    0.000063   -0.000000 Ang=  -0.01 deg.
 ExpMin= 4.05D-02 ExpMax= 2.52D+04 ExpMxC= 3.78D+03 IAcc=3 IRadAn=         5 AccDes= 0.00D+00
 Harris functional with IExCor= 1009 and IRadAn=       5 diagonalized for initial guess.
 HarFok:  IExCor= 1009 AccDes= 0.00D+00 IRadAn=         5 IDoV= 1 UseB2=F ITyADJ=14
 ICtDFT=  3500011 ScaDFX=  1.000000  1.000000  1.000000  1.000000
 FoFCou: FMM=F IPFlag=           0 FMFlag=      100000 FMFlg1=           0
         NFxFlg=           0 DoJE=T BraDBF=F KetDBF=T FulRan=T
         wScrn=  0.000000 ICntrl=       500 IOpCl=  0 I1Cent=   200000004 NGrid=           0
         NMat0=    1 NMatS0=      1 NMatT0=    0 NMatD0=    1 NMtDS0=    0 NMtDT0=    0
 Petite list used in FoFCou.
 Requested convergence on RMS density matrix=1.00D-08 within 128 cycles.
 Requested convergence on MAX density matrix=1.00D-06.
 Requested convergence on             energy=1.00D-06.
 No special actions if energy rises.
 SCF Done:  E(RM062X) =  -1295.53668452     A.U. after   13 cycles
            NFock= 13  Conv=0.58D-08     -V/T= 2.0049
 Calling FoFJK, ICntrl=      2127 FMM=F ISym2X=0 I1Cent= 0 IOpClX= 0 NMat=1 NMatS=1 NMatT=0.
 ***** Axes restored to original set *****
 -------------------------------------------------------------------
 Center     Atomic                   Forces (Hartrees/Bohr)
 Number     Number              X              Y              Z
 -------------------------------------------------------------------
      1        6           0.000205622   -0.000372365   -0.000626361
      2        6          -0.000033463    0.000066206   -0.001891153
      3        1           0.000082797   -0.000110154    0.000269171
      4        6          -0.000392301   -0.000245467    0.001486802
      5        1          -0.000014944    0.000049201   -0.000224758
      6        6           0.000140141    0.000151581   -0.001617366
      7       17          -0.000085407   -0.000039602    0.000839924
      8        6           0.000138468   -0.000060792    0.001547198
      9        1           0.000028426    0.000063997   -0.000219330
     10        6           0.000375715    0.000206382   -0.001840517
     11        1          -0.000051544   -0.000156113    0.000252867
     12       16           0.001246037   -0.004031041    0.001241535
     13        8           0.004267844    0.003284423    0.000230502
     14        8          -0.005318843   -0.000021668   -0.000900410
     15        7          -0.001286316    0.003924362   -0.000570753
     16        1           0.000497577   -0.001303841    0.001027654
     17        1           0.000200190   -0.001405108    0.000994996
 -------------------------------------------------------------------
 Cartesian Forces:  Max     0.005318843 RMS     0.001515398

 GradGradGradGradGradGradGradGradGradGradGradGradGradGradGradGradGradGrad
 Berny optimization.
 Using GEDIIS/GDIIS optimizer.
 FormGI is forming the generalized inverse of G from B-inverse, IUseBI=4.
 Internal  Forces:  Max     0.005264704 RMS     0.001008732
 Search for a local minimum.
 Step number   2 out of a maximum of   90
 All quantities printed in internal units (Hartrees-Bohrs-Radians)
 Mixed Optimization -- RFO/linear search
 Update second derivatives using D2CorX and points    1    2
 DE= -1.54D-03 DEPred=-1.55D-03 R= 9.88D-01
 TightC=F SS=  1.41D+00  RLast= 1.72D-01 DXNew= 5.0454D-01 5.1551D-01
 Trust test= 9.88D-01 RLast= 1.72D-01 DXMaxT set to 5.05D-01
 ITU=  1  0
 Use linear search instead of GDIIS.
     Eigenvalues ---    0.00661   0.01602   0.01944   0.02165   0.02185
     Eigenvalues ---    0.02190   0.02191   0.02194   0.02196   0.02197
     Eigenvalues ---    0.02212   0.04130   0.10137   0.11479   0.14822
     Eigenvalues ---    0.15717   0.15994   0.15997   0.15999   0.16000
     Eigenvalues ---    0.16430   0.19369   0.22000   0.23001   0.23776
     Eigenvalues ---    0.24998   0.24999   0.25126   0.27753   0.31010
     Eigenvalues ---    0.35332   0.35335   0.35428   0.35432   0.41123
     Eigenvalues ---    0.42670   0.42670   0.43795   0.43972   0.46818
     Eigenvalues ---    0.46870   0.46915   0.47402   0.84479   0.90607
 RFO step:  Lambda=-2.23456040D-04 EMin= 6.60858712D-03
 Quartic linear search produced a step of  0.00951.
 Iteration  1 RMS(Cart)=  0.00900674 RMS(Int)=  0.00003651
 Iteration  2 RMS(Cart)=  0.00003661 RMS(Int)=  0.00001703
 Iteration  3 RMS(Cart)=  0.00000000 RMS(Int)=  0.00001703
 Variable       Old X    -DE/DX   Delta X   Delta X   Delta X     New X
                                 (Linear)    (Quad)   (Total)
    R1        2.63037   0.00052  -0.00002   0.00100   0.00098   2.63136
    R2        2.63038   0.00052  -0.00002   0.00100   0.00098   2.63136
    R3        3.36888   0.00198   0.00008   0.00769   0.00778   3.37665
    R4        2.05203   0.00008   0.00001   0.00028   0.00028   2.05231
    R5        2.63202  -0.00091   0.00003  -0.00177  -0.00174   2.63028
    R6        2.04943   0.00014  -0.00000   0.00036   0.00036   2.04979
    R7        2.63190   0.00041  -0.00000   0.00087   0.00087   2.63277
    R8        3.28914  -0.00084  -0.00006  -0.00311  -0.00317   3.28597
    R9        2.63190   0.00040  -0.00000   0.00086   0.00086   2.63277
   R10        2.04943   0.00014  -0.00000   0.00036   0.00036   2.04979
   R11        2.63202  -0.00091   0.00003  -0.00177  -0.00174   2.63028
   R12        2.05203   0.00008   0.00001   0.00028   0.00028   2.05231
   R13        2.75037  -0.00526  -0.00013  -0.00668  -0.00680   2.74356
   R14        2.75037  -0.00526  -0.00013  -0.00668  -0.00681   2.74356
   R15        3.14277   0.00179   0.00022   0.00565   0.00587   3.14863
   R16        1.92496  -0.00108  -0.00007  -0.00292  -0.00298   1.92198
   R17        1.92496  -0.00108  -0.00007  -0.00292  -0.00298   1.92198
    A1        2.12334  -0.00045  -0.00007  -0.00231  -0.00238   2.12095
    A2        2.07990   0.00022   0.00004   0.00114   0.00118   2.08108
    A3        2.07989   0.00022   0.00004   0.00116   0.00119   2.08108
    A4        2.09584  -0.00040  -0.00014  -0.00321  -0.00335   2.09250
    A5        2.08047   0.00025   0.00004   0.00132   0.00135   2.08182
    A6        2.10656   0.00016   0.00010   0.00193   0.00204   2.10860
    A7        2.10800   0.00015   0.00006   0.00145   0.00151   2.10951
    A8        2.07923   0.00007   0.00003   0.00048   0.00051   2.07974
    A9        2.09588  -0.00023  -0.00009  -0.00191  -0.00200   2.09388
   A10        2.07978   0.00010   0.00004   0.00068   0.00072   2.08050
   A11        2.12358  -0.00020  -0.00008  -0.00135  -0.00143   2.12215
   A12        2.07978   0.00010   0.00004   0.00068   0.00072   2.08050
   A13        2.09588  -0.00023  -0.00009  -0.00191  -0.00200   2.09388
   A14        2.07923   0.00007   0.00003   0.00048   0.00051   2.07974
   A15        2.10801   0.00015   0.00006   0.00144   0.00150   2.10951
   A16        2.08047   0.00025   0.00004   0.00132   0.00135   2.08182
   A17        2.09583  -0.00040  -0.00014  -0.00320  -0.00334   2.09249
   A18        2.10658   0.00016   0.00010   0.00193   0.00203   2.10861
   A19        1.86856   0.00043  -0.00015   0.00337   0.00323   1.87178
   A20        1.86855   0.00043  -0.00015   0.00337   0.00322   1.87177
   A21        1.86158   0.00184  -0.00033   0.00813   0.00780   1.86938
   A22        2.15947  -0.00080   0.00067  -0.00473  -0.00409   2.15538
   A23        1.84374  -0.00074  -0.00008  -0.00412  -0.00423   1.83951
   A24        1.84376  -0.00074  -0.00008  -0.00413  -0.00424   1.83953
   A25        1.96502  -0.00035   0.00014   0.00273   0.00281   1.96783
   A26        1.96501  -0.00035   0.00015   0.00275   0.00284   1.96785
   A27        1.94619   0.00111   0.00016   0.01465   0.01472   1.96091
    D1        3.10497  -0.00007  -0.00032  -0.00484  -0.00516   3.09981
    D2       -0.00990  -0.00014  -0.00014  -0.00683  -0.00697  -0.01686
    D3       -0.04871  -0.00011  -0.00007  -0.00592  -0.00599  -0.05470
    D4        3.11961  -0.00018   0.00011  -0.00791  -0.00780   3.11181
    D5        0.00989   0.00014   0.00014   0.00684   0.00697   0.01686
    D6       -3.10497   0.00007   0.00032   0.00483   0.00515  -3.09982
    D7       -3.11962   0.00018  -0.00011   0.00792   0.00781  -3.11182
    D8        0.04870   0.00011   0.00007   0.00591   0.00598   0.05469
    D9        0.40254   0.00022  -0.00044   0.00104   0.00061   0.40315
   D10        2.75115  -0.00017   0.00020  -0.00006   0.00013   2.75127
   D11       -1.56474   0.00002  -0.00012   0.00048   0.00037  -1.56438
   D12       -2.75084   0.00017  -0.00020  -0.00004  -0.00023  -2.75106
   D13       -0.40223  -0.00022   0.00044  -0.00114  -0.00071  -0.40294
   D14        1.56507  -0.00002   0.00012  -0.00059  -0.00047   1.56460
   D15        3.13117   0.00008  -0.00004   0.00349   0.00345   3.13463
   D16        0.00204   0.00005   0.00004   0.00237   0.00241   0.00445
   D17        0.01648   0.00002   0.00015   0.00156   0.00171   0.01819
   D18       -3.11266  -0.00002   0.00022   0.00044   0.00067  -3.11199
   D19        3.13676   0.00008  -0.00003   0.00348   0.00345   3.14021
   D20        0.00573   0.00004   0.00005   0.00198   0.00204   0.00777
   D21        0.00754   0.00004   0.00005   0.00234   0.00239   0.00993
   D22       -3.12349   0.00000   0.00013   0.00084   0.00098  -3.12252
   D23        3.12350  -0.00000  -0.00013  -0.00085  -0.00098   3.12252
   D24       -0.00574  -0.00004  -0.00005  -0.00197  -0.00203  -0.00777
   D25       -0.00754  -0.00004  -0.00005  -0.00234  -0.00239  -0.00993
   D26       -3.13678  -0.00008   0.00003  -0.00347  -0.00344  -3.14022
   D27       -0.00202  -0.00005  -0.00004  -0.00238  -0.00243  -0.00444
   D28        3.11267   0.00002  -0.00022  -0.00045  -0.00067   3.11200
   D29       -3.13117  -0.00008   0.00004  -0.00349  -0.00346  -3.13462
   D30       -0.01648  -0.00002  -0.00015  -0.00155  -0.00170  -0.01818
   D31        1.10927   0.00047   0.00022   0.01229   0.01253   1.12180
   D32       -1.10897  -0.00047  -0.00023  -0.01234  -0.01259  -1.12155
   D33       -0.87500  -0.00049   0.00058   0.00677   0.00739  -0.86761
   D34       -3.09323  -0.00143   0.00013  -0.01786  -0.01773  -3.11096
   D35        3.09353   0.00142  -0.00013   0.01780   0.01767   3.11120
   D36        0.87529   0.00049  -0.00058  -0.00683  -0.00745   0.86784
         Item               Value     Threshold  Converged?
 Maximum Force            0.005265     0.000450     NO 
 RMS     Force            0.001009     0.000300     NO 
 Maximum Displacement     0.037554     0.001800     NO 
 RMS     Displacement     0.008995     0.001200     NO 
 Predicted change in Energy=-1.122120D-04
 GradGradGradGradGradGradGradGradGradGradGradGradGradGradGradGradGradGrad

                          Input orientation:                          
 ---------------------------------------------------------------------
 Center     Atomic      Atomic             Coordinates (Angstroms)
 Number     Number       Type             X           Y           Z
 ---------------------------------------------------------------------
      1          6           0       -1.474521    0.573243   -0.909703
      2          6           0       -2.567799    0.269067   -1.716639
      3          1           0       -3.469557   -0.143128   -1.273464
      4          6           0       -2.476868    0.471322   -3.090743
      5          1           0       -3.310467    0.237109   -3.744066
      6          6           0       -1.290967    0.968736   -3.626682
      7         17           0       -1.175421    1.219886   -5.343425
      8          6           0       -0.191760    1.259637   -2.821616
      9          1           0        0.724766    1.629181   -3.268821
     10          6           0       -0.284685    1.056698   -1.447745
     11          1           0        0.564414    1.248522   -0.798355
     12         16           0       -1.608098    0.356626    0.858930
     13          8           0       -2.662629   -0.612839    1.095395
     14          8           0       -0.259664    0.216421    1.378429
     15          7           0       -2.177151    1.791226    1.486842
     16          1           0       -3.116271    2.015417    1.167133
     17          1           0       -1.528686    2.563405    1.353963
 ---------------------------------------------------------------------
                    Distance matrix (angstroms):
                    1          2          3          4          5
     1  C    0.000000
     2  C    1.392453   0.000000
     3  H    2.150739   1.086037   0.000000
     4  C    2.402504   1.391883   2.159973   0.000000
     5  H    3.393715   2.159407   2.504748   1.084700   0.000000
     6  C    2.751741   2.401686   3.394131   1.393202   2.151148
     7  Cl   4.490601   3.999544   4.866770   2.707155   2.842925
     8  C    2.402504   2.801386   3.886963   2.432198   3.409225
     9  H    3.393715   3.885892   4.971405   3.409224   4.294977
    10  C    1.392454   2.430077   3.407839   2.801388   3.885894
    11  H    2.150733   3.407834   4.293639   3.886963   4.971406
    12  S    1.786848   2.749954   2.874350   4.045718   4.909166
    13  O    2.615112   2.948608   2.546224   4.328241   4.956056
    14  O    2.615100   3.861309   4.179142   4.995445   5.962196
    15  N    2.778597   3.568174   3.609894   4.773496   5.573337
    16  H    3.014707   3.415655   3.277292   4.574120   5.226851
    17  H    3.014608   3.971440   4.242131   5.003126   5.880161
                    6          7          8          9         10
     6  C    0.000000
     7  Cl   1.738860   0.000000
     8  C    1.393201   2.707155   0.000000
     9  H    2.151146   2.842923   1.084700   0.000000
    10  C    2.401688   3.999545   1.391884   2.159408   0.000000
    11  H    3.394135   4.866776   2.159979   2.504759   1.086036
    12  S    4.538277   6.277072   4.045721   4.909173   2.749959
    13  O    5.165351   6.857775   4.995432   5.962171   3.861287
    14  O    5.165336   6.857760   4.328197   4.955999   2.948551
    15  N    5.254516   6.926936   4.773592   5.573483   3.568300
    16  H    5.235259   6.840112   5.003408   5.880513   3.971727
    17  H    5.235103   6.839945   4.574128   5.226945   3.415739
                   11         12         13         14         15
    11  H    0.000000
    12  S    2.874348   0.000000
    13  O    4.179086   1.451832   0.000000
    14  O    2.546119   1.451831   2.557738   0.000000
    15  N    3.610101   1.666184   2.483637   2.483650   0.000000
    16  H    4.242489   2.262998   2.668083   3.382490   1.017066
    17  H    3.277569   2.263015   3.382486   2.668211   1.017066
                   16         17
    16  H    0.000000
    17  H    1.689858   0.000000
 Stoichiometry    C6H6ClNO2S
 Framework group  C1[X(C6H6ClNO2S)]
 Deg. of freedom    45
 Full point group                 C1      NOp   1
 Largest Abelian subgroup         C1      NOp   1
 Largest concise Abelian subgroup C1      NOp   1
                         Standard orientation:                         
 ---------------------------------------------------------------------
 Center     Atomic      Atomic             Coordinates (Angstroms)
 Number     Number       Type             X           Y           Z
 ---------------------------------------------------------------------
      1          6           0        0.481495    0.000016   -0.105453
      2          6           0       -0.198419   -1.215026   -0.087719
      3          1           0        0.356885   -2.146807   -0.141568
      4          6           0       -1.589143   -1.216097   -0.030936
      5          1           0       -2.145028   -2.147490   -0.022416
      6          6           0       -2.268170   -0.000002    0.001416
      7         17           0       -4.005667   -0.000014    0.070265
      8          6           0       -1.589158    1.216101   -0.030910
      9          1           0       -2.145056    2.147487   -0.022371
     10          6           0       -0.198433    1.215051   -0.087689
     11          1           0        0.356868    2.146833   -0.141508
     12         16           0        2.268147    0.000021   -0.131947
     13          8           0        2.690571   -1.278781   -0.674199
     14          8           0        2.690550    1.278957   -0.673899
     15          7           0        2.781843   -0.000174    1.453073
     16          1           0        2.515800   -0.845219    1.952615
     17          1           0        2.515611    0.844639    1.952908
 ---------------------------------------------------------------------
 Rotational constants (GHZ):           2.5782358           0.3990192           0.3724034
 Basis read from rwf:  (6D, 7F)
 There are   229 symmetry adapted cartesian basis functions of A   symmetry.
 There are   229 symmetry adapted basis functions of A   symmetry.
   229 basis functions,   424 primitive gaussians,   229 cartesian basis functions
    49 alpha electrons       49 beta electrons
       nuclear repulsion energy       796.2696153594 Hartrees.
 NAtoms=   17 NActive=   17 NUniq=   17 SFac= 1.00D+00 NAtFMM=   60 NAOKFM=F Big=F
 Integral buffers will be    131072 words long.
 Raffenetti 2 integral format.
 Two-electron integral symmetry is turned on.
 One-electron integrals computed using PRISM.
 NBasis=   229 RedAO= T EigKep=  1.82D-06  NBF=   229
 NBsUse=   229 1.00D-06 EigRej= -1.00D+00 NBFU=   229
 Initial guess from the checkpoint file:  "/jobfs/40737448.gadi-pbs/Gau-1071048.chk"
 B after Tr=    -0.000000    0.000000   -0.000000
         Rot=    1.000000    0.000016   -0.000142    0.000000 Ang=   0.02 deg.
 ExpMin= 4.05D-02 ExpMax= 2.52D+04 ExpMxC= 3.78D+03 IAcc=3 IRadAn=         5 AccDes= 0.00D+00
 Harris functional with IExCor= 1009 and IRadAn=       5 diagonalized for initial guess.
 HarFok:  IExCor= 1009 AccDes= 0.00D+00 IRadAn=         5 IDoV= 1 UseB2=F ITyADJ=14
 ICtDFT=  3500011 ScaDFX=  1.000000  1.000000  1.000000  1.000000
 FoFCou: FMM=F IPFlag=           0 FMFlag=      100000 FMFlg1=           0
         NFxFlg=           0 DoJE=T BraDBF=F KetDBF=T FulRan=T
         wScrn=  0.000000 ICntrl=       500 IOpCl=  0 I1Cent=   200000004 NGrid=           0
         NMat0=    1 NMatS0=      1 NMatT0=    0 NMatD0=    1 NMtDS0=    0 NMtDT0=    0
 Petite list used in FoFCou.
 Requested convergence on RMS density matrix=1.00D-08 within 128 cycles.
 Requested convergence on MAX density matrix=1.00D-06.
 Requested convergence on             energy=1.00D-06.
 No special actions if energy rises.
 SCF Done:  E(RM062X) =  -1295.53680180     A.U. after   12 cycles
            NFock= 12  Conv=0.43D-08     -V/T= 2.0049
 Calling FoFJK, ICntrl=      2127 FMM=F ISym2X=0 I1Cent= 0 IOpClX= 0 NMat=1 NMatS=1 NMatT=0.
 ***** Axes restored to original set *****
 -------------------------------------------------------------------
 Center     Atomic                   Forces (Hartrees/Bohr)
 Number     Number              X              Y              Z
 -------------------------------------------------------------------
      1        6           0.000088477   -0.000230393   -0.000074335
      2        6          -0.000165289    0.000082186   -0.000106722
      3        1          -0.000081504    0.000038486    0.000006669
      4        6          -0.000110967   -0.000176377    0.000380136
      5        1          -0.000018160   -0.000034563   -0.000006230
      6        6           0.000003032    0.000112716   -0.000352687
      7       17          -0.000017680   -0.000019792    0.000208025
      8        6           0.000113007   -0.000099018    0.000406233
      9        1           0.000036343   -0.000015705    0.000000382
     10        6           0.000096569    0.000173034   -0.000074982
     11        1           0.000038444    0.000079788    0.000020733
     12       16          -0.000253741    0.000383195    0.001039651
     13        8           0.000834548    0.000148705   -0.000370020
     14        8          -0.000652255   -0.000364470   -0.000545286
     15        7          -0.000002781    0.000413608   -0.001197363
     16        1          -0.000119861   -0.000302524    0.000312989
     17        1           0.000211817   -0.000188877    0.000352808
 -------------------------------------------------------------------
 Cartesian Forces:  Max     0.001197363 RMS     0.000335769

 GradGradGradGradGradGradGradGradGradGradGradGradGradGradGradGradGradGrad
 Berny optimization.
 Using GEDIIS/GDIIS optimizer.
 FormGI is forming the generalized inverse of G from B-inverse, IUseBI=4.
 Internal  Forces:  Max     0.000765242 RMS     0.000219073
 Search for a local minimum.
 Step number   3 out of a maximum of   90
 All quantities printed in internal units (Hartrees-Bohrs-Radians)
 Mixed Optimization -- En-DIIS/RFO-DIIS
 Update second derivatives using D2CorX and points    1    2    3
 DE= -1.17D-04 DEPred=-1.12D-04 R= 1.05D+00
 TightC=F SS=  1.41D+00  RLast= 4.62D-02 DXNew= 8.4853D-01 1.3865D-01
 Trust test= 1.05D+00 RLast= 4.62D-02 DXMaxT set to 5.05D-01
 ITU=  1  1  0
 Use linear search instead of GDIIS.
     Eigenvalues ---    0.00661   0.01601   0.01944   0.02174   0.02186
     Eigenvalues ---    0.02191   0.02194   0.02196   0.02197   0.02211
     Eigenvalues ---    0.02232   0.03406   0.10036   0.11761   0.15012
     Eigenvalues ---    0.15994   0.15997   0.15999   0.16000   0.16082
     Eigenvalues ---    0.16674   0.19447   0.22000   0.23033   0.24136
     Eigenvalues ---    0.24998   0.24999   0.25825   0.29432   0.30807
     Eigenvalues ---    0.35319   0.35335   0.35428   0.35429   0.41636
     Eigenvalues ---    0.42665   0.42975   0.43657   0.43972   0.46801
     Eigenvalues ---    0.46817   0.46915   0.47063   0.78742   0.90607
 RFO step:  Lambda=-2.38661474D-05 EMin= 6.60858265D-03
 Quartic linear search produced a step of  0.05132.
 Iteration  1 RMS(Cart)=  0.00219509 RMS(Int)=  0.00000846
 Iteration  2 RMS(Cart)=  0.00000634 RMS(Int)=  0.00000592
 Iteration  3 RMS(Cart)=  0.00000000 RMS(Int)=  0.00000592
 Variable       Old X    -DE/DX   Delta X   Delta X   Delta X     New X
                                 (Linear)    (Quad)   (Total)
    R1        2.63136   0.00001   0.00005   0.00003   0.00008   2.63144
    R2        2.63136   0.00001   0.00005   0.00003   0.00008   2.63144
    R3        3.37665  -0.00041   0.00040  -0.00106  -0.00066   3.37599
    R4        2.05231   0.00006   0.00001   0.00019   0.00020   2.05251
    R5        2.63028  -0.00033  -0.00009  -0.00080  -0.00089   2.62939
    R6        2.04979   0.00003   0.00002   0.00009   0.00011   2.04989
    R7        2.63277   0.00023   0.00004   0.00057   0.00061   2.63338
    R8        3.28597  -0.00021  -0.00016  -0.00093  -0.00110   3.28487
    R9        2.63277   0.00023   0.00004   0.00056   0.00061   2.63338
   R10        2.04979   0.00003   0.00002   0.00009   0.00011   2.04989
   R11        2.63028  -0.00033  -0.00009  -0.00080  -0.00089   2.62939
   R12        2.05231   0.00006   0.00001   0.00019   0.00020   2.05251
   R13        2.74356  -0.00077  -0.00035  -0.00137  -0.00172   2.74184
   R14        2.74356  -0.00077  -0.00035  -0.00137  -0.00172   2.74184
   R15        3.14863  -0.00030   0.00030  -0.00022   0.00008   3.14872
   R16        1.92198  -0.00006  -0.00015  -0.00036  -0.00051   1.92147
   R17        1.92198  -0.00006  -0.00015  -0.00036  -0.00051   1.92147
    A1        2.12095   0.00031  -0.00012   0.00107   0.00095   2.12190
    A2        2.08108  -0.00015   0.00006  -0.00054  -0.00048   2.08060
    A3        2.08108  -0.00015   0.00006  -0.00055  -0.00048   2.08060
    A4        2.09250   0.00010  -0.00017   0.00020   0.00003   2.09252
    A5        2.08182  -0.00015   0.00007  -0.00058  -0.00051   2.08130
    A6        2.10860   0.00005   0.00010   0.00037   0.00047   2.10907
    A7        2.10951  -0.00000   0.00008   0.00006   0.00013   2.10964
    A8        2.07974  -0.00002   0.00003   0.00003   0.00005   2.07980
    A9        2.09388   0.00003  -0.00010  -0.00008  -0.00018   2.09370
   A10        2.08050  -0.00002   0.00004  -0.00004   0.00000   2.08050
   A11        2.12215   0.00003  -0.00007   0.00007  -0.00000   2.12215
   A12        2.08050  -0.00002   0.00004  -0.00004   0.00000   2.08050
   A13        2.09388   0.00003  -0.00010  -0.00008  -0.00018   2.09370
   A14        2.07974  -0.00002   0.00003   0.00003   0.00005   2.07980
   A15        2.10951  -0.00000   0.00008   0.00006   0.00013   2.10964
   A16        2.08182  -0.00015   0.00007  -0.00058  -0.00051   2.08130
   A17        2.09249   0.00010  -0.00017   0.00020   0.00003   2.09252
   A18        2.10861   0.00004   0.00010   0.00036   0.00047   2.10907
   A19        1.87178  -0.00023   0.00017  -0.00217  -0.00201   1.86978
   A20        1.87177  -0.00023   0.00017  -0.00217  -0.00200   1.86977
   A21        1.86938  -0.00036   0.00040  -0.00081  -0.00041   1.86897
   A22        2.15538  -0.00026  -0.00021  -0.00169  -0.00191   2.15346
   A23        1.83951   0.00054  -0.00022   0.00355   0.00333   1.84285
   A24        1.83953   0.00054  -0.00022   0.00356   0.00333   1.84286
   A25        1.96783   0.00000   0.00014   0.00211   0.00223   1.97006
   A26        1.96785   0.00000   0.00015   0.00210   0.00223   1.97008
   A27        1.96091   0.00028   0.00076   0.00562   0.00634   1.96726
    D1        3.09981   0.00005  -0.00026   0.00207   0.00181   3.10162
    D2       -0.01686   0.00007  -0.00036   0.00284   0.00248  -0.01438
    D3       -0.05470   0.00002  -0.00031   0.00060   0.00030  -0.05440
    D4        3.11181   0.00004  -0.00040   0.00137   0.00097   3.11278
    D5        0.01686  -0.00007   0.00036  -0.00283  -0.00248   0.01438
    D6       -3.09982  -0.00005   0.00026  -0.00207  -0.00181  -3.10162
    D7       -3.11182  -0.00004   0.00040  -0.00137  -0.00097  -3.11278
    D8        0.05469  -0.00002   0.00031  -0.00060  -0.00029   0.05439
    D9        0.40315   0.00035   0.00003   0.00336   0.00339   0.40654
   D10        2.75127  -0.00033   0.00001  -0.00202  -0.00201   2.74927
   D11       -1.56438   0.00001   0.00002   0.00067   0.00069  -1.56368
   D12       -2.75106   0.00033  -0.00001   0.00194   0.00193  -2.74914
   D13       -0.40294  -0.00035  -0.00004  -0.00344  -0.00347  -0.40641
   D14        1.56460  -0.00001  -0.00002  -0.00075  -0.00077   1.56383
   D15        3.13463  -0.00003   0.00018  -0.00116  -0.00098   3.13364
   D16        0.00445  -0.00004   0.00012  -0.00178  -0.00165   0.00280
   D17        0.01819  -0.00001   0.00009  -0.00039  -0.00030   0.01789
   D18       -3.11199  -0.00003   0.00003  -0.00100  -0.00097  -3.11296
   D19        3.14021   0.00002   0.00018   0.00096   0.00113   3.14135
   D20        0.00777   0.00001   0.00010   0.00078   0.00089   0.00866
   D21        0.00993   0.00000   0.00012   0.00035   0.00047   0.01040
   D22       -3.12252   0.00000   0.00005   0.00017   0.00023  -3.12229
   D23        3.12252  -0.00000  -0.00005  -0.00017  -0.00023   3.12229
   D24       -0.00777  -0.00001  -0.00010  -0.00078  -0.00089  -0.00866
   D25       -0.00993  -0.00000  -0.00012  -0.00035  -0.00047  -0.01040
   D26       -3.14022  -0.00002  -0.00018  -0.00096  -0.00113  -3.14135
   D27       -0.00444   0.00004  -0.00012   0.00177   0.00165  -0.00279
   D28        3.11200   0.00003  -0.00003   0.00100   0.00096   3.11296
   D29       -3.13462   0.00003  -0.00018   0.00116   0.00098  -3.13364
   D30       -0.01818   0.00001  -0.00009   0.00039   0.00030  -0.01788
   D31        1.12180   0.00019   0.00064   0.00571   0.00637   1.12817
   D32       -1.12155  -0.00020  -0.00065  -0.00576  -0.00641  -1.12797
   D33       -0.86761   0.00037   0.00038   0.00690   0.00729  -0.86032
   D34       -3.11096  -0.00002  -0.00091  -0.00458  -0.00549  -3.11645
   D35        3.11120   0.00002   0.00091   0.00454   0.00545   3.11664
   D36        0.86784  -0.00037  -0.00038  -0.00694  -0.00733   0.86051
         Item               Value     Threshold  Converged?
 Maximum Force            0.000765     0.000450     NO 
 RMS     Force            0.000219     0.000300     YES
 Maximum Displacement     0.007719     0.001800     NO 
 RMS     Displacement     0.002194     0.001200     NO 
 Predicted change in Energy=-1.223654D-05
 GradGradGradGradGradGradGradGradGradGradGradGradGradGradGradGradGradGrad

                          Input orientation:                          
 ---------------------------------------------------------------------
 Center     Atomic      Atomic             Coordinates (Angstroms)
 Number     Number       Type             X           Y           Z
 ---------------------------------------------------------------------
      1          6           0       -1.474580    0.573563   -0.910218
      2          6           0       -2.568447    0.269791   -1.716585
      3          1           0       -3.470510   -0.141355   -1.272795
      4          6           0       -2.476909    0.470445   -3.090406
      5          1           0       -3.310287    0.235844   -3.743967
      6          6           0       -1.290641    0.967724   -3.626499
      7         17           0       -1.175007    1.218452   -5.342711
      8          6           0       -0.191286    1.258979   -2.821206
      9          1           0        0.725350    1.628128   -3.268650
     10          6           0       -0.284669    1.057690   -1.447600
     11          1           0        0.563888    1.250511   -0.797617
     12         16           0       -1.608352    0.357595    0.858125
     13          8           0       -2.660221   -0.614113    1.091629
     14          8           0       -0.259981    0.214141    1.374344
     15          7           0       -2.177419    1.792747    1.484877
     16          1           0       -3.118419    2.015719    1.170748
     17          1           0       -1.527875    2.564666    1.357961
 ---------------------------------------------------------------------
                    Distance matrix (angstroms):
                    1          2          3          4          5
     1  C    0.000000
     2  C    1.392498   0.000000
     3  H    2.150885   1.086144   0.000000
     4  C    2.401773   1.391412   2.159920   0.000000
     5  H    3.393229   2.159110   2.504923   1.084757   0.000000
     6  C    2.750886   2.401597   3.394378   1.393525   2.151375
     7  Cl   4.489166   3.998802   4.866480   2.706906   2.842696
     8  C    2.401772   2.801709   3.887393   2.432761   3.409760
     9  H    3.393228   3.886268   4.971896   3.409760   4.295433
    10  C    1.392497   2.430798   3.408497   2.801711   3.886270
    11  H    2.150881   3.408495   4.294119   3.887394   4.971897
    12  S    1.786498   2.749295   2.873570   4.044505   4.908223
    13  O    2.612223   2.945467   2.543731   4.324267   4.952575
    14  O    2.612214   3.858232   4.176269   4.991439   5.958351
    15  N    2.777926   3.566743   3.607990   4.771938   5.572087
    16  H    3.018681   3.418687   3.278389   4.577864   5.230601
    17  H    3.018604   3.975182   4.244674   5.007434   5.884732
                    6          7          8          9         10
     6  C    0.000000
     7  Cl   1.738281   0.000000
     8  C    1.393524   2.706906   0.000000
     9  H    2.151374   2.842696   1.084757   0.000000
    10  C    2.401598   3.998804   1.391413   2.159111   0.000000
    11  H    3.394381   4.866484   2.159924   2.504929   1.086143
    12  S    4.537074   6.275287   4.044507   4.908226   2.749297
    13  O    5.161267   6.853093   4.991431   5.958336   3.858219
    14  O    5.161257   6.853083   4.324239   4.952538   2.945429
    15  N    5.252923   6.924637   4.772000   5.572180   3.566824
    16  H    5.239526   6.843802   5.007639   5.884984   3.975387
[...]
   zz         0.105582D+03      0.156456D+02      0.174081D+02

 ----------------------------------------------------------------------
 Unable to Open any file for archive entry.
 1\1\GINC-GADI-CPU-CLX-2804\Freq\RM062X\Gen\C6H6Cl1N1O2S1\YJ5695\20-May
 -2022\0\\#N Geom=AllCheck Guess=TCheck SCRF=Check GenChk RM062X/ChkBas
  Freq\\HA.2.a2.freq\\0,1\C,-1.474706356,0.5740371557,-0.9106813569\C,-
 2.5684890466,0.2702229075,-1.7170661697\H,-3.4709629118,-0.1402370299,
 -1.2736370872\C,-2.4767417152,0.470445556,-3.0910931616\H,-3.310051389
 5,0.2356345923,-3.7446561323\C,-1.2903569963,0.9671557568,-3.627278653
 \Cl,-1.1740923155,1.2161954665,-5.3438246136\C,-0.1913040762,1.2589799
 387,-2.8218940028\H,0.7253965582,1.6279672977,-3.2693244747\C,-0.28484
 50406,1.0581383161,-1.4480777427\H,0.5636690648,1.2518140546,-0.798401
 4788\S,-1.6084289223,0.3580058135,0.8573819869\O,-2.6608808562,-0.6131
 680287,1.0923773306\O,-0.2602576764,0.2151337766,1.3751434334\N,-2.176
 7269128,1.7915445807,1.4828229511\H,-3.1195768179,2.0145625893,1.17505
 45342\H,-1.5270095897,2.5640952567,1.3625846372\\Version=ES64L-G16RevC
 .01\State=1-A\HF=-1295.536817\RMSD=5.637e-09\RMSF=1.021e-05\ZeroPoint=
 0.1196262\Thermal=0.129619\ETot=-1295.407198\HTot=-1295.4062538\GTot=-
 1295.4537292\Dipole=-0.3874024,1.4993532,-1.1032154\DipoleDeriv=-0.185
 1108,0.0227762,0.008858,0.0205597,-0.2552591,0.0569945,0.0153416,0.038
 1994,-0.4183499,-0.0210291,0.0101943,0.1753244,0.0583657,-0.0421915,0.
 0171826,-0.1079101,-0.0748314,-0.0132393,0.0574071,-0.0215174,0.017339
 4,-0.0262235,0.1182556,0.0052203,0.0305812,0.0137912,0.0900528,-0.0418
 135,0.0081579,0.1261337,0.00182,-0.1006845,0.079057,0.1841543,0.094218
 9,-0.3069688,0.0470796,-0.0297257,-0.0423207,-0.0327978,0.1306002,0.00
 19732,-0.0451494,-0.0046488,0.0221642,0.1062913,0.0504994,-0.0748821,0
 .0524143,0.0292918,-0.1942355,-0.0804915,-0.1779793,1.3195842,-0.07795
 76,-0.0146317,0.0538027,-0.0162263,-0.0707048,0.1202885,0.0584737,0.10
 67505,-0.8857888,0.0008598,0.0383403,-0.0798869,0.0435126,-0.0809655,0
 .0111512,-0.1344941,-0.0139025,-0.3693626,0.0335818,-0.0419433,0.03132
 07,-0.0401204,0.1254653,0.0270673,0.0378086,0.0230833,0.0407971,0.0068
 437,0.034788,-0.1414459,-0.0110156,-0.0609624,-0.1014142,0.1348583,0.0
 106936,-0.0223414,0.0691728,-0.022719,-0.0229843,-0.0172957,0.1195207,
 -0.0081193,-0.038326,-0.0106034,0.0770248,1.9509324,-0.0618636,-0.1322
 282,-0.0847304,2.1298484,0.0870621,-0.065244,-0.1070695,2.7815163,-0.8
 124391,-0.3415324,0.2746464,-0.2106616,-0.8721114,0.2208323,0.1150173,
 0.1244147,-0.8872639,-0.9894918,0.1747499,-0.3623018,0.0384943,-0.5869
 25,0.0376107,-0.1868803,0.0882577,-0.9953955,-0.50199,0.192452,0.23014
 43,0.2206471,-0.9015156,-0.4289733,0.147553,-0.1895915,-1.1058224,0.21
 19665,-0.0323657,-0.1195751,0.0040079,0.144535,0.0024376,-0.0970213,0.
 0121211,0.3181934,0.1456972,0.0343408,0.0580554,-0.0007503,0.1738029,0
 .0658651,0.0317288,0.0670962,0.3551996\Polar=103.2794392,11.1383263,76
 .6421688,-3.4325049,-6.463849,154.7920822\Quadrupole=6.1771909,2.75793
 93,-8.9351302,0.1913316,-1.0622898,8.217125\PG=C01 [X(C6H6Cl1N1O2S1)]\
 NImag=0\\0.64947645,0.17868651,0.20710807,0.02969800,-0.03039305,0.551
 51905,-0.25648659,-0.05580404,-0.12899174,0.66634676,-0.06561485,-0.08
 145720,-0.03315164,0.20032178,0.22479892,-0.06979075,-0.01166550,-0.18
 492397,-0.01005163,-0.07080692,0.69363944,-0.01570090,-0.00870369,0.00
 957154,-0.25931681,-0.09740967,0.09713413,0.27157105,-0.00524456,0.001
 19164,0.00276352,-0.09962330,-0.08402396,0.04586067,0.10871335,0.07589
 964,-0.01426381,-0.00637402,0.01228863,0.09800513,0.04581181,-0.105775
 96,-0.10354244,-0.04954678,0.10812694,0.04240955,0.01338691,-0.0169481
 3,-0.12460549,-0.01912396,-0.02589358,0.00421002,-0.00281823,0.0256505
 7,0.66242217,0.02084198,0.01599425,-0.00074495,-0.02803433,-0.07652954
 ,0.02510403,-0.00011389,0.00333352,0.01119276,0.18811777,0.20753838,-0
 .07380234,-0.02047227,-0.04024489,0.04876626,0.05196827,-0.35103387,-0
 .00133871,0.00082454,-0.00693926,0.06666618,-0.04482768,0.71655506,0.0
 0200253,-0.00215482,0.00093333,0.00702794,0.00088174,0.00348383,-0.000
 13686,0.00159054,-0.00002503,-0.23089580,-0.05642191,-0.13635286,0.240
 38888,-0.00174999,0.00635661,0.00208905,0.00366938,0.00486658,0.003011
 79,0.00173471,-0.00364333,-0.00077889,-0.05652722,-0.05428024,-0.03601
 677,0.06310432,0.04465285,0.00126521,0.00176196,-0.00483383,-0.0238232
 8,-0.00700642,-0.01295235,0.00034449,-0.00052325,0.00098468,-0.1389665
 1,-0.03696649,-0.16325227,0.14625375,0.03768035,0.17030278,-0.07747062
 ,-0.02381280,-0.00866706,0.03250457,-0.00263124,0.09148508,0.00222261,
 -0.00181696,-0.00070270,-0.28079520,-0.08256034,0.02388450,-0.01604213
 ,-0.00804769,0.01143066,0.61084656,-0.02379436,-0.01618991,-0.00455072
 ,0.00641137,0.00406796,0.03565462,-0.00223734,0.00677381,0.00133736,-0
 .09035245,-0.09948619,0.01722397,-0.00508384,0.00103390,0.00347422,0.1
 6999740,0.19344124,-0.00872105,-0.00439404,0.00020299,0.02817127,0.012
 90328,-0.01382542,-0.00076790,0.00099728,-0.00416835,0.09678079,0.0440
 4748,-0.13931365,-0.01758029,-0.00731878,0.00959633,0.02946709,-0.0386
 0762,0.53589658,0.00190071,0.00072953,0.00050087,-0.00345504,-0.002758
 31,-0.00223877,0.00008116,0.00001795,0.00090330,0.00144036,-0.00470610
 ,0.02891381,0.00051146,0.00108815,0.00081100,-0.03984643,-0.00634179,0
 .00883400,0.03649579,0.00073792,-0.00015955,0.00068026,-0.00361286,0.0
 0377822,-0.00071004,0.00011319,-0.00013447,0.00044329,-0.00176917,0.00
 235814,0.01531793,0.00124785,-0.00222985,-0.00012634,-0.00631301,-0.02
 976369,0.02070051,0.01029934,0.01982964,0.00047630,0.00075142,-0.00403
 340,0.00384714,0.00161701,0.00378656,-0.00023082,-0.00004873,-0.001099
 72,0.00337480,0.00581423,-0.03474560,-0.00025592,-0.00048932,0.0010387
 3,0.00874969,0.02094489,-0.17662849,-0.01340274,-0.03283618,0.24844039
 ,0.02786227,0.00416655,0.02858639,-0.01614721,0.00012563,-0.02858862,0
 .00031772,0.00043177,-0.00051901,-0.04603068,-0.02124558,0.01531919,-0
 .00230123,-0.00338327,0.00247574,-0.26105724,-0.05369033,-0.13333401,0
 .00501277,-0.00007220,0.00219149,0.68125934,-0.00312901,0.00627409,0.0
 1273328,-0.00051695,-0.00438928,-0.00303068,0.00055612,-0.00077237,-0.
 00027016,-0.01494835,0.00260101,-0.00144543,-0.00343067,0.00447513,0.0
 0168211,-0.06163934,-0.08196815,-0.03368582,0.00293670,0.00515534,0.00
 616101,0.19322645,0.20882120,0.08497338,0.03381456,-0.01597745,-0.0317
 4105,-0.00333900,-0.06500209,-0.00048124,-0.00032133,-0.00110707,-0.03
 684092,-0.02018374,0.06949289,0.00308223,0.00179144,-0.00070564,-0.059
 97811,-0.00819445,-0.17657091,-0.02355836,-0.00273161,-0.04111520,-0.0
 1762665,-0.07407457,0.69643502,0.00233960,-0.00152990,-0.00062007,0.00
 013693,0.00044850,-0.00093098,-0.00011279,0.00022618,0.00009946,-0.001
 57023,-0.00213270,-0.00387793,-0.00072650,-0.00039434,0.00059695,-0.01
 618562,-0.00815303,0.01226740,0.00061659,0.00106408,0.00049458,-0.2681
 6151,-0.09141267,0.10038129,0.27967317,-0.00201665,0.00644006,0.001507
 98,0.00046497,-0.00074804,-0.00008853,0.00027819,-0.00070360,-0.000068
 90,-0.00215816,0.00525866,-0.00049539,-0.00018490,0.00004577,0.0001222
 3,-0.00509886,0.00100946,0.00333261,0.00121880,-0.00226072,-0.00021926
 ,-0.09131991,-0.07392111,0.04307886,0.10039742,0.06571051,-0.00071201,
 0.00113967,-0.00525438,-0.00062879,-0.00024263,-0.00095864,0.00011910,
 -0.00005830,0.00005949,-0.00333570,-0.00019981,-0.00222013,-0.00085411
 ,-0.00040309,0.00066135,-0.01700811,-0.00669357,0.00976428,-0.00055775
 ,-0.00062451,0.00096445,0.10303169,0.04392203,-0.10634569,-0.10757622,
 -0.04710128,0.10996084,-0.28237248,-0.08920107,0.09457075,-0.05111935,
 -0.01667446,-0.03753913,-0.00142362,-0.00213161,-0.00378614,-0.0244879
 8,-0.01103827,0.03481209,-0.00010310,0.00014621,0.00083794,0.04690676,
 0.01597927,-0.01603809,-0.00305765,-0.00209614,-0.00564107,-0.12514232
 ,-0.01910847,-0.02396318,0.00374086,-0.00281706,0.02641692,0.66934981,
 -0.07941011,-0.09465800,0.04341026,-0.02350213,0.00330051,-0.02251703,
 -0.00247794,0.00519271,-0.00009236,-0.01182717,-0.01115052,0.01855457,
 0.00021600,-0.00090965,0.00024581,0.02498882,0.01518427,0.00031795,-0.
 00297701,0.00417878,-0.00169856,-0.02803026,-0.07645896,0.02584737,0.0
 0002635,0.00272476,0.01036056,0.17276290,0.20542440,0.03542779,0.02175
 585,-0.14583839,0.01644171,-0.00308804,0.06776431,-0.00406612,-0.00024
 385,-0.00245670,0.03208828,0.01700407,-0.04990009,0.00098395,0.0005443
 8,-0.00055698,-0.07925529,-0.02271348,-0.03934395,0.00052196,0.0004049
 9,0.00298864,0.05073027,0.05261422,-0.35056630,-0.00105356,0.00081583,
 -0.00752346,0.05962494,-0.05013481,0.71001090,-0.01592997,-0.00450684,
 -0.01558156,-0.00245476,-0.00318962,0.00310823,-0.00065748,-0.00025958
 ,-0.00093523,0.00007812,0.00026535,0.00085036,-0.00007073,0.00023045,-
 0.00006785,0.00180638,-0.00191369,0.00111263,0.00016823,0.00005115,0.0
 0048556,0.00742713,0.00065163,0.00364576,0.00004681,0.00136589,-0.0000
 4303,-0.23683003,-0.04788893,-0.13630091,0.24776172,-0.00807127,0.0016
 9170,-0.00623860,-0.00351604,0.00459226,0.00211031,-0.00043206,0.00024
 050,-0.00037676,0.00040000,-0.00085514,0.00014410,0.00028038,-0.000706
 37,-0.00011813,-0.00225773,0.00678292,0.00161110,0.00016501,-0.0001155
 0,0.00021222,0.00350938,0.00539784,0.00315888,0.00147988,-0.00383061,-
 0.00067745,-0.04580219,-0.05104532,-0.02925471,0.05348337,0.04062256,0
 .00856209,0.00200514,0.01201768,0.00276999,0.00212775,-0.00082510,0.00
 064052,0.00018723,0.00073444,0.00085794,0.00018041,-0.00078471,-0.0000
 4215,-0.00012509,0.00002020,0.00082381,0.00191908,-0.00376126,-0.00070
 307,-0.00012180,-0.00120576,-0.02379279,-0.00590704,-0.01222065,0.0004
 1488,-0.00067801,0.00098831,-0.13680041,-0.03028297,-0.16124154,0.1458
 7078,0.03096928,0.16721362,-0.07753054,-0.00707500,0.00535354,0.011236
 42,0.00581910,-0.01632756,-0.00339960,0.00032581,-0.00360068,-0.003396
 37,-0.00336687,-0.00632477,0.00032159,0.00026760,-0.00137900,-0.004395
 19,-0.00138743,0.00003879,-0.00021519,0.00026940,-0.00062480,-0.004979
 31,-0.00378067,0.00328461,0.00030479,-0.00037422,0.00115984,0.00672253
 ,0.00150656,0.02077549,-0.00367577,-0.00159997,0.00357360,1.09302217,-
 0.00764536,-0.06168516,0.01318881,0.00647209,0.00058511,-0.00258601,-0
 .00120826,-0.00158226,-0.00279645,-0.00356942,0.00475270,-0.00123951,-
 0.00008081,0.00061412,-0.00038628,-0.00135928,-0.00103908,0.00032075,0
 .00019451,-0.00062192,-0.00040331,-0.00368145,0.00475979,0.00212707,-0
 .00008450,0.00039340,0.00048993,0.00056597,-0.00240312,0.00970338,0.00
 011419,-0.00175765,-0.00015416,0.17228642,0.67764502,0.00702482,0.0083
 4548,-0.16342440,-0.01038348,-0.00199486,-0.02255155,0.00140969,-0.000
 02085,0.00045189,-0.00316055,-0.00062077,0.00521713,0.00023853,-0.0000
 6939,0.00094156,-0.00004358,0.00055964,-0.00613803,-0.00040543,-0.0010
 3907,0.00628977,0.00042300,0.00063125,0.00679294,-0.00028577,-0.000325
 20,0.00117909,0.01567381,0.00667107,-0.01504926,-0.00196444,-0.0014006
 2,0.00090336,0.08910101,-0.04106290,0.52678901,-0.00251751,-0.01057029
 ,-0.00326036,-0.00379552,-0.00121317,-0.00061193,0.00170223,-0.0000376
 2,0.00157365,0.00155248,0.00118062,0.00101583,-0.00005193,-0.00007651,
 0.00041890,0.00002391,0.00001880,-0.00115575,0.00017155,-0.00013016,0.
 00091231,-0.00038299,0.00056577,0.00060292,-0.00002049,0.00008983,0.00
 042296,0.00193278,-0.00089052,0.00347701,0.00078707,0.00008655,-0.0007
 7593,-0.36413353,-0.25146818,0.05967027,0.36495949,-0.01233421,-0.0007
 5068,-0.00339842,-0.00202677,0.00005964,-0.00075123,0.00075521,-0.0009
 6810,0.00078507,0.00050749,0.00024091,0.00077147,-0.00000514,-0.000085
 84,0.00024165,0.00035330,0.00024737,-0.00076677,0.00005227,-0.00006603
 ,0.00067867,-0.00111753,-0.00069293,-0.00018925,0.00006758,-0.00014519
 ,0.00041835,0.00137833,0.00069603,0.00523218,0.00036890,0.00001134,-0.
 00011719,-0.25683022,-0.31779495,0.05722040,0.29032290,0.33987459,0.02
 263407,0.02070810,0.00035308,-0.00045538,0.00104285,-0.00162949,0.0015
 8811,0.00077334,-0.00095459,0.00116994,-0.00009888,0.00016036,-0.00005
 715,0.00002626,-0.00012967,0.00075674,0.00028433,0.00154736,0.00010123
 ,0.00026703,-0.00148334,0.00220174,-0.00026186,-0.00186554,0.00000159,
 -0.00007159,-0.00074303,-0.00493050,0.00059187,-0.00504364,0.00023646,
 0.00052803,-0.00001208,0.06762048,0.06669862,-0.10356149,-0.07169548,-
 0.06658312,0.08473669,-0.00714001,0.00014460,0.00309331,0.00190607,0.0
 0123847,-0.00442246,0.00064324,0.00034129,0.00084672,-0.00043011,-0.00
 028290,-0.00006968,0.00008687,0.00007345,-0.00041076,0.00022156,-0.000
 01289,0.00110198,0.00025663,0.00023640,-0.00075124,0.00222570,0.000338
 72,-0.00081352,-0.00001443,0.00008151,-0.00044898,-0.00391497,-0.00213
 629,0.00030501,0.00163180,0.00174276,-0.00104535,-0.53668132,0.0417058
 0,-0.17179960,-0.01056795,0.00806871,-0.01412246,0.57453601,0.00502025
 ,0.00948465,0.00102598,-0.00133652,0.00049717,0.00218792,0.00012742,0.
 00003304,0.00042007,0.00122933,-0.00017043,-0.00014295,0.00002351,-0.0
 0017884,0.00012114,-0.00025782,0.00000205,-0.00006780,0.00003104,0.000
 04299,0.00009874,0.00080333,-0.00002765,0.00014776,0.00000125,-0.00003
 358,-0.00005857,-0.00098080,0.00011620,-0.00030681,0.00096593,-0.00027
 274,-0.00009086,0.04833743,-0.09080378,0.02031333,-0.02637136,0.013159
 60,-0.00796219,-0.06488972,0.06980135,-0.03191612,0.00333633,-0.005260
 00,0.00488193,0.00422924,-0.00481803,-0.00036615,0.00035595,0.00011007
 ,-0.00116756,-0.00152237,-0.00234101,0.00022208,-0.00000180,-0.0008167
 6,-0.00107285,-0.00035868,0.00159505,0.00012702,0.00031564,-0.00167743
 ,-0.00035685,-0.00075218,-0.00024427,0.00005310,0.00008138,-0.00021943
 ,-0.00085312,0.00080177,-0.00156678,-0.00110654,0.00005621,-0.00157960
 ,-0.18346728,0.02160983,-0.15800755,0.00803857,0.00374080,0.01792488,0
 .19745633,-0.02407354,0.14523592,0.00889923,0.00644646,0.00180001,-0.0
 0199752,-0.00020456,0.00130887,0.00002248,0.00029379,0.00029944,0.0002
 7323,-0.00049148,0.00135788,-0.00001234,-0.00011520,0.00024405,0.00097
 539,0.00045617,-0.00040076,-0.00006105,-0.00003511,0.00058635,0.000428
 74,-0.00029845,-0.00063427,-0.00006345,0.00005445,-0.00000713,-0.00032
 545,-0.00003904,-0.00013985,0.00013968,0.00041887,-0.00040378,-0.11700
 066,0.03569264,0.02018841,0.00837685,-0.03300055,-0.00701637,-0.021942
 49,0.03731135,0.00924555,0.73415624,0.00387186,-0.00013997,0.00074555,
 0.00080604,0.00002938,-0.00143451,0.00037688,-0.00059936,0.00049587,-0
 .00034862,0.00071364,-0.00035361,0.00000178,-0.00001708,-0.00021746,0.
 00032510,-0.00016614,0.00090632,0.00009437,0.00005934,-0.00098698,0.00
 011992,0.00092336,-0.00099204,0.00002241,0.00005465,-0.00029963,-0.000
 92534,-0.00071000,-0.00220644,0.00011083,-0.00066192,0.00021715,0.0391
 6544,-0.19266901,-0.06782158,0.00202852,-0.02919344,-0.01240748,0.0060
 1112,0.00005189,-0.00509546,0.05935686,0.59120528,0.00934187,-0.021111
 57,-0.00612998,0.00353904,-0.00018673,-0.00029786,0.00015050,-0.000646
 68,-0.00037621,0.00008519,0.00188909,-0.00066050,-0.00004102,0.0000788
 8,-0.00027241,-0.00001672,-0.00020631,0.00183299,0.00020705,0.00011231
 ,-0.00209093,-0.00100543,0.00152931,-0.00102602,0.00002911,0.00012516,
 -0.00029303,-0.00273410,-0.00239963,-0.00123047,0.00040385,-0.00054938
 ,-0.00043085,0.01000710,-0.03831679,-0.07501088,0.00100416,0.00416627,
 0.00972673,-0.00969696,0.00998686,0.01080194,0.07468940,0.00061365,0.1
 2734582,0.00111096,-0.00084366,-0.00014787,0.00053063,0.00005800,-0.00
 008521,0.00003060,-0.00007414,0.00002426,-0.00010117,0.00010790,0.0001
 7227,0.00000170,-0.00000831,-0.00005066,0.00026072,-0.00003672,0.00026
 953,0.00000234,0.00004460,-0.00030794,-0.00019310,0.00014413,-0.000291
 28,-0.00000495,0.00002450,-0.00004073,-0.00042852,-0.00046336,-0.00003
 558,-0.00000260,-0.00003215,-0.00003386,-0.00939444,0.00567555,-0.0036
 8465,0.00020852,-0.00256349,0.00080126,0.00179166,0.00064810,0.0006176
 7,-0.38746049,0.06964163,-0.11036809,0.40728818,-0.00132799,-0.0005562
 0,-0.00006557,0.00029416,0.00030524,-0.00032619,-0.00009916,-0.0001827
 2,-0.00022311,-0.00014099,-0.00010971,-0.00010182,0.00001262,0.0000246
 0,-0.00002250,-0.00010800,-0.00006941,-0.00011906,-0.00002325,-0.00001
 339,0.00013170,0.00000095,-0.00008397,0.00019912,-0.00000204,-0.000007
 16,0.00001624,-0.00005101,0.00028992,0.00004244,0.00000099,-0.00010328
 ,0.00003391,0.02868830,0.00081317,0.01347484,-0.00455954,0.00084518,-0
 .00080129,0.00552369,-0.00573757,-0.00239456,0.08235294,-0.08487017,0.
 01844705,-0.08226335,0.07804732,-0.00134946,-0.00016313,-0.00040647,0.
 00011097,0.00013548,-0.00035704,-0.00014352,-0.00037538,-0.00000403,-0
 .00021833,0.00009388,-0.00033228,0.00000651,0.00000558,-0.00003956,-0.
 00018808,-0.00014215,-0.00035663,-0.00002929,-0.00002277,0.00026142,0.
 00009825,-0.00004231,0.00033765,0.00000783,-0.00001894,0.00000723,0.00
 032738,0.00021040,-0.00014438,-0.00002480,0.00000786,0.00012386,0.0158
 2429,-0.00958434,-0.00112642,0.00071254,0.00172007,-0.00186313,0.00243
 580,-0.00283915,0.00310009,-0.14600676,0.02953226,-0.04898807,0.120820
 23,-0.01866388,0.05252420,-0.00085268,0.00064156,0.00010906,-0.0003110
 4,-0.00007338,-0.00003952,-0.00005306,0.00006531,-0.00002751,-0.000072
 90,-0.00011926,0.00000791,-0.00000035,-0.00001175,0.00001934,0.0000239
 7,0.00014087,-0.00004563,-0.00002222,-0.00003528,0.00009632,-0.0001380
 8,-0.00015494,-0.00004158,0.00000125,-0.00000578,0.00006207,0.00055274
 ,0.00014213,0.00047488,-0.00022562,0.00014520,0.00008372,0.01319442,0.
 00639010,-0.00200204,0.00175504,0.00600323,0.00116573,-0.00260825,-0.0
 0066272,-0.00033577,-0.22440839,-0.18065880,0.02440504,-0.01364003,-0.
 02829832,0.00761645,0.22680520,0.00117984,0.00105560,0.00039830,-0.000
 46683,0.00026702,-0.00001271,0.00002692,-0.00005468,0.00004120,-0.0000
 5775,-0.00020944,0.00029058,0.00000334,-0.00001836,0.00003742,0.000238
 44,0.00013958,-0.00017739,-0.00002120,-0.00003732,0.00027245,0.0001565
 8,-0.00009335,-0.00013906,-0.00002446,0.00001273,0.00001205,-0.0000062
 5,0.00022800,-0.00016920,0.00014998,0.00000941,-0.00016283,-0.02225167
 ,-0.01920639,0.00713922,0.00102436,-0.00543750,-0.00273401,0.00181528,
 0.00403565,-0.00032858,-0.18819913,-0.28401044,0.02646850,0.00994074,0
 .01140814,0.00014653,0.19649183,0.29191137,0.00115199,0.00095507,-0.00
 005427,-0.00045809,-0.00001945,-0.00023895,-0.00002117,0.00002264,0.00
 012575,-0.00014241,-0.00016126,0.00034282,0.00000431,-0.00002461,0.000
 01383,0.00033494,0.00006883,-0.00032889,-0.00002482,-0.00002964,0.0003
 0992,0.00016560,0.00019685,-0.00031169,-0.00000169,0.00000306,-0.00002
 724,0.00002191,0.00011373,-0.00030190,0.00031074,-0.00018235,0.0000600
 8,-0.00501468,-0.01760865,-0.00369518,-0.00034966,-0.00316896,0.002836
 89,-0.00165814,0.00124007,-0.00223709,0.04488894,0.05930441,-0.0129002
 7,-0.00765934,-0.00962730,-0.00273646,-0.03154845,-0.03108246,0.019142
 63\\-0.00000478,0.00001306,0.00000466,-0.00000600,-0.00000401,0.000016
 15,-0.00000092,0.00000450,-0.00000599,-0.00000088,0.00000160,0.0000066
 9,0.00000029,0.00000129,-0.00000325,0.00000150,0.00000312,-0.00002053,
 -0.00000119,0.00000029,0.00000911,-0.00000181,0.00000131,0.00000632,-0
 .00000032,0.00000108,-0.00000329,0.00000349,-0.00000079,0.00001754,-0.
 00000076,0.00000455,-0.00000598,0.00000974,-0.00001516,-0.00003776,0.0
 0002230,0.00000513,0.00001452,-0.00002339,-0.00001073,0.00000920,-0.00
 000279,0.00001165,-0.00000812,-0.00000431,-0.00001102,-0.00000030,0.00
 000983,-0.00000590,0.00000102\\\@
 The archive entry for this job was punched.


     SCHOPENHAUER'S LAW OF ENTROPY
 IF YOU PUT A SPOONFUL OF WINE IN A BARREL FULL
 OF SEWAGE, YOU GET SEWAGE.
 IF YOU PUT A SPOONFUL OF SEWAGE IN A BARREL FULL
 OF WINE, YOU GET SEWAGE.
 Job cpu time:       0 days  0 hours 43 minutes  9.9 seconds.
 Elapsed time:       0 days  0 hours  2 minutes 43.7 seconds.
 File lengths (MBytes):  RWF=    113 Int=      0 D2E=      0 Chk=      6 Scr=      1
 Normal termination of Gaussian 16 at Fri May 20 14:49:25 2022.
