 Entering Gaussian System, Link 0=g16
 AtFile(1): /home/561/yj5695/Basis/6-31pGd.gbs
 Initial command:
 /apps/gaussian/g16c01/g16/l1.exe "/jobfs/49768607.gadi-pbs/Gau-2717207.inp" -scrdir="/jobfs/49768607.gadi-pbs/"
 Entering Link 1 = /apps/gaussian/g16c01/g16/l1.exe PID=   2717208.
  
 Copyright (c) 1988-2019, Gaussian, Inc.  All Rights Reserved.
  
 This is part of the Gaussian(R) 16 program.  It is based on
 the Gaussian(R) 09 system (copyright 2009, Gaussian, Inc.),
 the Gaussian(R) 03 system (copyright 2003, Gaussian, Inc.),
 the Gaussian(R) 98 system (copyright 1998, Gaussian, Inc.),
 the Gaussian(R) 94 system (copyright 1995, Gaussian, Inc.),
 the Gaussian 92(TM) system (copyright 1992, Gaussian, Inc.),
 the Gaussian 90(TM) system (copyright 1990, Gaussian, Inc.),
 the Gaussian 88(TM) system (copyright 1988, Gaussian, Inc.),
 the Gaussian 86(TM) system (copyright 1986, Carnegie Mellon
 University), and the Gaussian 82(TM) system (copyright 1983,
 Carnegie Mellon University). Gaussian is a federally registered
 trademark of Gaussian, Inc.
  
 This software contains proprietary and confidential information,
 including trade secrets, belonging to Gaussian, Inc.
  
 This software is provided under written license and may be
 used, copied, transmitted, or stored only in accord with that
 written license.
  
 The following legend is applicable only to US Government
 contracts under FAR:
  
                    RESTRICTED RIGHTS LEGEND
  
 Use, reproduction and disclosure by the US Government is
 subject to restrictions as set forth in subparagraphs (a)
 and (c) of the Commercial Computer Software - Restricted
 Rights clause in FAR 52.227-19.
  
 Gaussian, Inc.
 340 Quinnipiac St., Bldg. 40, Wallingford CT 06492
  
  
 ---------------------------------------------------------------
 Warning -- This program may not be used in any manner that
 competes with the business of Gaussian, Inc. or will provide
 assistance to any competitor of Gaussian, Inc.  The licensee
 of this program is prohibited from giving any competitor of
 Gaussian, Inc. access to this program.  By using this program,
 the user acknowledges that Gaussian, Inc. is engaged in the
 business of creating and licensing software in the field of
 computational chemistry and represents and warrants to the
 licensee that it is not a competitor of Gaussian, Inc. and that
 it will not use this program in any manner prohibited above.
 ---------------------------------------------------------------
  

 Cite this work as:
 Gaussian 16, Revision C.01,
 M. J. Frisch, G. W. Trucks, H. B. Schlegel, G. E. Scuseria, 
 M. A. Robb, J. R. Cheeseman, G. Scalmani, V. Barone, 
 G. A. Petersson, H. Nakatsuji, X. Li, M. Caricato, A. V. Marenich, 
 J. Bloino, B. G. Janesko, R. Gomperts, B. Mennucci, H. P. Hratchian, 
 J. V. Ortiz, A. F. Izmaylov, J. L. Sonnenberg, D. Williams-Young, 
 F. Ding, F. Lipparini, F. Egidi, J. Goings, B. Peng, A. Petrone, 
 T. Henderson, D. Ranasinghe, V. G. Zakrzewski, J. Gao, N. Rega, 
 G. Zheng, W. Liang, M. Hada, M. Ehara, K. Toyota, R. Fukuda, 
 J. Hasegawa, M. Ishida, T. Nakajima, Y. Honda, O. Kitao, H. Nakai, 
 T. Vreven, K. Throssell, J. A. Montgomery, Jr., J. E. Peralta, 
 F. Ogliaro, M. J. Bearpark, J. J. Heyd, E. N. Brothers, K. N. Kudin, 
 V. N. Staroverov, T. A. Keith, R. Kobayashi, J. Normand, 
 K. Raghavachari, A. P. Rendell, J. C. Burant, S. S. Iyengar, 
 J. Tomasi, M. Cossi, J. M. Millam, M. Klene, C. Adamo, R. Cammi, 
 J. W. Ochterski, R. L. Martin, K. Morokuma, O. Farkas, 
 J. B. Foresman, and D. J. Fox, Gaussian, Inc., Wallingford CT, 2019.
 
 ******************************************
 Gaussian 16:  ES64L-G16RevC.01  3-Jul-2019
                 1-Jul-2022 
 ******************************************
 %nproc=16
 Will use up to   16 processors via shared memory.
 %mem=50gb
 --------------------------------------------------
 #M062X/gen 6D INT(grid=ultrafine) OPT Freq=noraman
 --------------------------------------------------
 1/18=20,19=15,26=4,38=1/1,3;
 2/9=110,12=2,17=6,18=5,40=1/2;
 3/5=7,8=2,11=2,25=1,30=1,71=1,74=-55,75=-5/1,2,3;
 4//1;
 5/5=2,38=5/2;
 6/7=2,8=2,9=2,10=2,28=1/1;
 7//1,2,3,16;
 1/18=20,19=15,26=4/3(2);
 2/9=110/2;
 99//99;
 2/9=110/2;
 3/5=7,6=1,8=2,11=2,25=1,30=1,71=1,74=-55,75=-5,82=7/1,2,3;
 4/5=5,16=3,69=1/1;
 5/5=2,38=5/2;
 7//1,2,3,16;
 1/18=20,19=15,26=4/3(-5);
 2/9=110/2;
 6/7=2,8=2,9=2,10=2,19=2,28=1/1;
 99/9=1/99;
 ----------
 HA.30.freq
 ----------
 Symbolic Z-matrix:
 Charge =  0 Multiplicity = 1
 C                    -1.49293   0.72218  -0.82877 
 C                    -2.62159   0.85719  -1.67579 
 C                    -4.02475   1.08154  -1.15219 
 C                    -2.47682   0.81611  -3.04293 
 H                    -3.33904   0.92884  -3.69231 
 C                    -1.21046   0.61824  -3.64959 
 C                    -0.10532   0.48271  -2.78278 
 S                     1.51205   0.29334  -3.47079 
 C                    -0.24463   0.53916  -1.4012 
 H                     0.63246   0.45365  -0.76605 
 S                    -1.53585   0.76069   0.95523 
 O                    -0.1488    0.88311   1.39889 
 O                    -2.51171   1.76113   1.3756 
 N                    -2.05876  -0.69096   1.5333 
 H                    -1.42507  -1.45023   1.27571 
 H                    -3.01696  -0.90354   1.25239 
 N                    -1.09298   0.60466  -4.99453 
 C                     0.14015   0.23119  -5.66614 
 N                     1.30544   0.83658  -5.026 
 O                     2.44258   1.19553  -2.79807 
 O                     1.84744  -1.12735  -3.54248 
 H                    -1.93593   0.68996  -5.55244 
 F                    -4.95051   0.83149  -2.08874 
 F                    -4.22005   2.34539  -0.74845 
 F                    -4.31289   0.27607  -0.11113 
 H                     0.27909  -0.85379  -5.66315 
 H                     0.09507   0.57871  -6.69573 
 H                     1.27494   1.86065  -5.0382 
 

 GradGradGradGradGradGradGradGradGradGradGradGradGradGradGradGradGradGrad
 Berny optimization.
 Initialization pass.
                           ----------------------------
                           !    Initial Parameters    !
                           ! (Angstroms and Degrees)  !
 --------------------------                            --------------------------
 ! Name  Definition              Value          Derivative Info.                !
 --------------------------------------------------------------------------------
 ! R1    R(1,2)                  1.4176         estimate D2E/DX2                !
 ! R2    R(1,9)                  1.3854         estimate D2E/DX2                !
 ! R3    R(1,11)                 1.7849         estimate D2E/DX2                !
 ! R4    R(2,3)                  1.5144         estimate D2E/DX2                !
 ! R5    R(2,4)                  1.3754         estimate D2E/DX2                !
 ! R6    R(3,23)                 1.3404         estimate D2E/DX2                !
 ! R7    R(3,24)                 1.3411         estimate D2E/DX2                !
 ! R8    R(3,25)                 1.3475         estimate D2E/DX2                !
 ! R9    R(4,5)                  1.0853         estimate D2E/DX2                !
 ! R10   R(4,6)                  1.418          estimate D2E/DX2                !
 ! R11   R(6,7)                  1.4111         estimate D2E/DX2                !
 ! R12   R(6,17)                 1.3501         estimate D2E/DX2                !
 ! R13   R(7,8)                  1.7678         estimate D2E/DX2                !
 ! R14   R(7,9)                  1.3897         estimate D2E/DX2                !
 ! R15   R(8,19)                 1.6603         estimate D2E/DX2                !
 ! R16   R(8,20)                 1.4603         estimate D2E/DX2                !
 ! R17   R(8,21)                 1.4615         estimate D2E/DX2                !
 ! R18   R(9,10)                 1.0863         estimate D2E/DX2                !
 ! R19   R(11,12)                1.4614         estimate D2E/DX2                !
 ! R20   R(11,13)                1.4594         estimate D2E/DX2                !
 ! R21   R(11,14)                1.6477         estimate D2E/DX2                !
 ! R22   R(14,15)                1.022          estimate D2E/DX2                !
 ! R23   R(14,16)                1.0209         estimate D2E/DX2                !
 ! R24   R(17,18)                1.453          estimate D2E/DX2                !
 ! R25   R(17,22)                1.0144         estimate D2E/DX2                !
 ! R26   R(18,19)                1.4609         estimate D2E/DX2                !
 ! R27   R(18,26)                1.0938         estimate D2E/DX2                !
 ! R28   R(18,27)                1.0876         estimate D2E/DX2                !
 ! R29   R(19,28)                1.0246         estimate D2E/DX2                !
 ! A1    A(2,1,9)              118.8872         estimate D2E/DX2                !
 ! A2    A(2,1,11)             125.1694         estimate D2E/DX2                !
 ! A3    A(9,1,11)             115.9429         estimate D2E/DX2                !
 ! A4    A(1,2,3)              123.0409         estimate D2E/DX2                !
 ! A5    A(1,2,4)              120.4823         estimate D2E/DX2                !
 ! A6    A(3,2,4)              116.4632         estimate D2E/DX2                !
 ! A7    A(2,3,23)             111.7599         estimate D2E/DX2                !
 ! A8    A(2,3,24)             112.2496         estimate D2E/DX2                !
 ! A9    A(2,3,25)             112.1295         estimate D2E/DX2                !
 ! A10   A(23,3,24)            106.5944         estimate D2E/DX2                !
 ! A11   A(23,3,25)            106.2975         estimate D2E/DX2                !
 ! A12   A(24,3,25)            107.4341         estimate D2E/DX2                !
 ! A13   A(2,4,5)              120.5328         estimate D2E/DX2                !
 ! A14   A(2,4,6)              121.5612         estimate D2E/DX2                !
 ! A15   A(5,4,6)              117.9047         estimate D2E/DX2                !
 ! A16   A(4,6,7)              116.7449         estimate D2E/DX2                !
 ! A17   A(4,6,17)             120.3497         estimate D2E/DX2                !
 ! A18   A(7,6,17)             122.8765         estimate D2E/DX2                !
 ! A19   A(6,7,8)              119.1938         estimate D2E/DX2                !
 ! A20   A(6,7,9)              121.8898         estimate D2E/DX2                !
 ! A21   A(8,7,9)              118.8797         estimate D2E/DX2                !
 ! A22   A(7,8,19)             102.4541         estimate D2E/DX2                !
 ! A23   A(7,8,20)             109.7265         estimate D2E/DX2                !
 ! A24   A(7,8,21)             109.4616         estimate D2E/DX2                !
 ! A25   A(19,8,20)            107.9797         estimate D2E/DX2                !
 ! A26   A(19,8,21)            107.4981         estimate D2E/DX2                !
 ! A27   A(20,8,21)            118.4857         estimate D2E/DX2                !
 ! A28   A(1,9,7)              120.4269         estimate D2E/DX2                !
 ! A29   A(1,9,10)             119.7566         estimate D2E/DX2                !
 ! A30   A(7,9,10)             119.8105         estimate D2E/DX2                !
 ! A31   A(1,11,12)            106.4042         estimate D2E/DX2                !
 ! A32   A(1,11,13)            108.5878         estimate D2E/DX2                !
 ! A33   A(1,11,14)            109.8328         estimate D2E/DX2                !
 ! A34   A(12,11,13)           119.3255         estimate D2E/DX2                !
 ! A35   A(12,11,14)           105.5755         estimate D2E/DX2                !
 ! A36   A(13,11,14)           106.8986         estimate D2E/DX2                !
 ! A37   A(11,14,15)           111.6745         estimate D2E/DX2                !
 ! A38   A(11,14,16)           112.6306         estimate D2E/DX2                !
 ! A39   A(15,14,16)           110.9735         estimate D2E/DX2                !
 ! A40   A(6,17,18)            122.4716         estimate D2E/DX2                !
 ! A41   A(6,17,22)            118.3401         estimate D2E/DX2                !
 ! A42   A(18,17,22)           118.2043         estimate D2E/DX2                !
 ! A43   A(17,18,19)           111.5864         estimate D2E/DX2                !
 ! A44   A(17,18,26)           111.1924         estimate D2E/DX2                !
 ! A45   A(17,18,27)           108.6792         estimate D2E/DX2                !
 ! A46   A(19,18,26)           107.9704         estimate D2E/DX2                !
 ! A47   A(19,18,27)           108.3887         estimate D2E/DX2                !
 ! A48   A(26,18,27)           108.9532         estimate D2E/DX2                !
 ! A49   A(8,19,18)            111.9707         estimate D2E/DX2                !
 ! A50   A(8,19,28)            109.9921         estimate D2E/DX2                !
 ! A51   A(18,19,28)           112.6579         estimate D2E/DX2                !
 ! D1    D(9,1,2,3)           -179.0474         estimate D2E/DX2                !
 ! D2    D(9,1,2,4)             -0.4403         estimate D2E/DX2                !
 ! D3    D(11,1,2,3)             1.2323         estimate D2E/DX2                !
 ! D4    D(11,1,2,4)           179.8394         estimate D2E/DX2                !
 ! D5    D(2,1,9,7)             -0.3126         estimate D2E/DX2                !
 ! D6    D(2,1,9,10)           178.8009         estimate D2E/DX2                !
 ! D7    D(11,1,9,7)           179.4331         estimate D2E/DX2                !
 ! D8    D(11,1,9,10)           -1.4534         estimate D2E/DX2                !
 ! D9    D(2,1,11,12)         -167.7846         estimate D2E/DX2                !
 ! D10   D(2,1,11,13)          -38.1673         estimate D2E/DX2                !
 ! D11   D(2,1,11,14)           78.4038         estimate D2E/DX2                !
 ! D12   D(9,1,11,12)           12.4877         estimate D2E/DX2                !
 ! D13   D(9,1,11,13)          142.1051         estimate D2E/DX2                !
 ! D14   D(9,1,11,14)         -101.3239         estimate D2E/DX2                !
 ! D15   D(1,2,3,23)          -163.7581         estimate D2E/DX2                !
 ! D16   D(1,2,3,24)            76.5365         estimate D2E/DX2                !
 ! D17   D(1,2,3,25)           -44.5157         estimate D2E/DX2                !
 ! D18   D(4,2,3,23)            17.5828         estimate D2E/DX2                !
 ! D19   D(4,2,3,24)          -102.1226         estimate D2E/DX2                !
 ! D20   D(4,2,3,25)           136.8251         estimate D2E/DX2                !
 ! D21   D(1,2,4,5)           -179.4144         estimate D2E/DX2                !
 ! D22   D(1,2,4,6)              1.0022         estimate D2E/DX2                !
 ! D23   D(3,2,4,5)             -0.7187         estimate D2E/DX2                !
 ! D24   D(3,2,4,6)            179.6979         estimate D2E/DX2                !
 ! D25   D(2,4,6,7)             -0.7771         estimate D2E/DX2                !
 ! D26   D(2,4,6,17)          -178.8762         estimate D2E/DX2                !
 ! D27   D(5,4,6,7)            179.6289         estimate D2E/DX2                !
 ! D28   D(5,4,6,17)             1.5299         estimate D2E/DX2                !
 ! D29   D(4,6,7,8)           -177.7572         estimate D2E/DX2                !
 ! D30   D(4,6,7,9)              0.0139         estimate D2E/DX2                !
 ! D31   D(17,6,7,8)             0.2896         estimate D2E/DX2                !
 ! D32   D(17,6,7,9)           178.0606         estimate D2E/DX2                !
 ! D33   D(4,6,17,18)         -171.6089         estimate D2E/DX2                !
 ! D34   D(4,6,17,22)           -3.1696         estimate D2E/DX2                !
 ! D35   D(7,6,17,18)           10.4125         estimate D2E/DX2                !
 ! D36   D(7,6,17,22)          178.8517         estimate D2E/DX2                !
 ! D37   D(6,7,8,19)            18.2579         estimate D2E/DX2                !
 ! D38   D(6,7,8,20)           132.7784         estimate D2E/DX2                !
 ! D39   D(6,7,8,21)           -95.6095         estimate D2E/DX2                !
 ! D40   D(9,7,8,19)          -159.5809         estimate D2E/DX2                !
 ! D41   D(9,7,8,20)           -45.0604         estimate D2E/DX2                !
 ! D42   D(9,7,8,21)            86.5517         estimate D2E/DX2                !
 ! D43   D(6,7,9,1)              0.524          estimate D2E/DX2                !
 ! D44   D(6,7,9,10)          -178.589          estimate D2E/DX2                !
 ! D45   D(8,7,9,1)            178.3019         estimate D2E/DX2                !
 ! D46   D(8,7,9,10)            -0.8112         estimate D2E/DX2                !
 ! D47   D(7,8,19,18)          -48.8788         estimate D2E/DX2                !
 ! D48   D(7,8,19,28)           77.1936         estimate D2E/DX2                !
 ! D49   D(20,8,19,18)        -164.6695         estimate D2E/DX2                !
 ! D50   D(20,8,19,28)         -38.5971         estimate D2E/DX2                !
 ! D51   D(21,8,19,18)          66.423          estimate D2E/DX2                !
 ! D52   D(21,8,19,28)        -167.5046         estimate D2E/DX2                !
 ! D53   D(1,11,14,15)          62.1656         estimate D2E/DX2                !
 ! D54   D(1,11,14,16)         -63.495          estimate D2E/DX2                !
 ! D55   D(12,11,14,15)        -52.1775         estimate D2E/DX2                !
 ! D56   D(12,11,14,16)       -177.8381         estimate D2E/DX2                !
 ! D57   D(13,11,14,15)        179.793          estimate D2E/DX2                !
 ! D58   D(13,11,14,16)         54.1324         estimate D2E/DX2                !
 ! D59   D(6,17,18,19)         -43.5276         estimate D2E/DX2                !
 ! D60   D(6,17,18,26)          77.0873         estimate D2E/DX2                !
 ! D61   D(6,17,18,27)        -162.9919         estimate D2E/DX2                !
 ! D62   D(22,17,18,19)        148.0182         estimate D2E/DX2                !
 ! D63   D(22,17,18,26)        -91.3669         estimate D2E/DX2                !
 ! D64   D(22,17,18,27)         28.5539         estimate D2E/DX2                !
 ! D65   D(17,18,19,8)          63.7867         estimate D2E/DX2                !
 ! D66   D(17,18,19,28)        -60.8178         estimate D2E/DX2                !
 ! D67   D(26,18,19,8)         -58.6954         estimate D2E/DX2                !
 ! D68   D(26,18,19,28)        176.7001         estimate D2E/DX2                !
 ! D69   D(27,18,19,8)        -176.5773         estimate D2E/DX2                !
 ! D70   D(27,18,19,28)         58.8182         estimate D2E/DX2                !
 --------------------------------------------------------------------------------
 Trust Radius=3.00D-01 FncErr=1.00D-07 GrdErr=1.00D-06 EigMax=2.50D+02 EigMin=1.00D-04
 Number of steps in this run=    160 maximum allowed number of steps=    168.
 GradGradGradGradGradGradGradGradGradGradGradGradGradGradGradGradGradGrad

                          Input orientation:                          
 ---------------------------------------------------------------------
 Center     Atomic      Atomic             Coordinates (Angstroms)
 Number     Number       Type             X           Y           Z
 ---------------------------------------------------------------------
      1          6           0       -1.492925    0.722182   -0.828774
      2          6           0       -2.621587    0.857188   -1.675789
      3          6           0       -4.024754    1.081545   -1.152194
      4          6           0       -2.476818    0.816108   -3.042933
      5          1           0       -3.339043    0.928844   -3.692309
      6          6           0       -1.210457    0.618241   -3.649592
      7          6           0       -0.105320    0.482707   -2.782778
      8         16           0        1.512049    0.293339   -3.470787
      9          6           0       -0.244631    0.539161   -1.401198
     10          1           0        0.632463    0.453654   -0.766045
     11         16           0       -1.535845    0.760686    0.955230
     12          8           0       -0.148802    0.883105    1.398893
     13          8           0       -2.511705    1.761125    1.375604
     14          7           0       -2.058764   -0.690964    1.533297
     15          1           0       -1.425073   -1.450227    1.275705
     16          1           0       -3.016962   -0.903541    1.252393
     17          7           0       -1.092980    0.604663   -4.994534
     18          6           0        0.140148    0.231185   -5.666141
     19          7           0        1.305436    0.836580   -5.026001
     20          8           0        2.442577    1.195533   -2.798066
     21          8           0        1.847438   -1.127351   -3.542477
     22          1           0       -1.935929    0.689957   -5.552444
     23          9           0       -4.950511    0.831485   -2.088743
     24          9           0       -4.220046    2.345390   -0.748445
     25          9           0       -4.312890    0.276068   -0.111133
     26          1           0        0.279092   -0.853786   -5.663151
     27          1           0        0.095072    0.578705   -6.695728
     28          1           0        1.274936    1.860649   -5.038200
 ---------------------------------------------------------------------
                    Distance matrix (angstroms):
                    1          2          3          4          5
     1  C    0.000000
     2  C    1.417582   0.000000
     3  C    2.577576   1.514386   0.000000
     4  C    2.424741   1.375401   2.457937   0.000000
     5  H    3.413311   2.141549   2.635470   1.085279   0.000000
     6  C    2.836830   2.438090   3.791031   1.418047   2.151552
     7  C    2.408511   2.774394   4.287117   2.408908   3.388694
     8  S    4.024178   4.541684   6.054199   4.045665   4.897554
     9  C    1.385426   2.413806   3.826946   2.784718   3.869939
    10  H    2.143202   3.402839   4.715191   3.870816   4.955975
    11  S    1.784936   2.847878   3.277019   4.107774   4.987927
    12  O    2.606734   3.945758   4.644397   5.015373   6.008333
    13  O    2.641325   3.184364   3.023394   4.518600   5.202011
    14  N    2.810077   3.607184   3.770778   4.836105   5.618705
    15  H    3.025359   3.932827   4.366109   4.989296   5.831331
    16  H    3.049085   3.439584   3.276927   4.658194   5.283129
    17  N    4.186565   3.662578   4.856572   2.401762   2.616425
    18  C    5.129145   4.893053   6.200422   3.751249   4.060482
    19  N    5.045852   5.161962   6.593733   4.270647   4.833056
    20  O    4.426099   5.198052   6.674448   4.940078   5.856443
    21  O    4.684334   5.234033   6.713815   4.767155   5.581216
    22  H    4.744507   3.940374   4.886587   2.570237   2.342199
    23  F    3.681626   2.365392   1.340403   2.651391   2.275463
    24  F    3.174657   2.372716   1.341065   3.262242   3.383652
    25  F    2.943846   2.376206   1.347451   3.501179   3.768198
    26  H    5.384693   5.219236   6.528195   4.153207   4.489197
    27  H    6.079759   5.714681   6.925069   4.473689   4.575617
    28  H    5.164923   5.243628   6.617761   4.375822   4.895762
                    6          7          8          9         10
     6  C    0.000000
     7  C    1.411051   0.000000
     8  S    2.747648   1.767795   0.000000
     9  C    2.448336   1.389733   2.725720   0.000000
    10  H    3.426118   2.147645   2.848684   1.086289   0.000000
    11  S    4.618501   4.012029   5.394228   2.696119   2.785429
    12  O    5.165701   4.201021   5.178806   2.822763   2.341316
    13  O    5.315263   4.971638   6.467805   3.787275   4.022677
    14  N    5.412576   4.880774   6.225786   3.662724   3.720192
    15  H    5.346323   4.685004   5.847726   3.537926   3.467991
    16  H    5.441391   5.165457   6.652285   4.099848   4.385701
    17  N    1.350131   2.425327   3.033958   3.692702   4.569472
    18  C    2.457726   2.904703   2.589509   4.293325   4.929788
    19  N    2.876090   2.673482   1.660268   3.953525   4.329752
    20  O    3.795131   2.645777   1.460270   3.098895   2.820639
    21  O    3.522682   2.642479   1.461501   3.426236   3.418233
    22  H    2.037719   3.326429   4.047117   4.485094   5.437103
    23  F    4.058291   4.907057   6.630560   4.764817   5.749947
    24  F    4.522977   4.953692   6.669256   4.415028   5.208245
    25  F    4.718354   4.988390   6.724395   4.276005   4.991689
    26  H    2.905175   3.198521   2.764514   4.514292   5.080937
    27  H    3.314350   3.919254   3.534049   5.305564   5.955297
    28  H    3.106282   2.981738   2.229230   4.157307   4.543535
                   11         12         13         14         15
    11  S    0.000000
    12  O    1.461407   0.000000
    13  O    1.459416   2.520867   0.000000
    14  N    1.647693   2.478651   2.498552   0.000000
    15  H    2.236764   2.662420   3.391686   1.021958   0.000000
    16  H    2.247591   3.382293   2.714942   1.020901   1.683306
    17  N    5.968263   6.468764   6.627884   6.724877   6.606721
    18  C    6.850684   7.100929   7.678490   7.584028   7.312065
    19  N    6.622217   6.587582   7.510386   7.528321   7.238554
    20  O    5.486726   4.942400   6.502640   6.525461   6.209217
    21  O    5.936384   5.695967   7.178645   6.419683   5.833391
    22  H    6.520344   7.179987   7.033972   7.220094   7.173910
    23  F    4.575011   5.934870   4.337477   4.878445   5.380932
    24  F    3.552285   4.829531   2.787719   4.370004   5.129889
    25  F    3.013961   4.470828   2.767679   2.953030   3.639080
    26  H    7.050070   7.285077   8.010642   7.568418   7.169912
    27  H    7.824971   8.104013   8.563866   8.600461   8.364876
    28  H    6.710560   6.664742   7.448855   7.798003   7.623473
                   16         17         18         19         20
    16  H    0.000000
    17  N    6.708240   0.000000
    18  C    7.689022   1.452978   0.000000
    19  N    7.818528   2.409808   1.460883   0.000000
    20  O    7.114696   4.204017   3.802236   2.526981   0.000000
    21  O    6.833978   3.708692   3.044734   2.520245   2.510802
    22  H    7.072035   1.014446   2.129200   3.287109   5.197453
    23  F    4.232271   4.834833   6.250836   6.911178   7.435955
    24  F    4.000789   5.553192   6.903976   7.148772   7.064960
    25  F    2.220385   5.858618   7.119668   7.485699   7.328121
    26  H    7.661018   2.111091   1.093836   2.077662   4.133895
    27  H    8.663396   2.075139   1.087590   2.078333   4.591626
    28  H    8.101401   2.680752   2.082596   1.024596   2.612272
                   21         22         23         24         25
    21  O    0.000000
    22  H    4.653648   0.000000
    23  F    7.222361   4.594013   0.000000
    24  F    7.528672   5.571001   2.149857   0.000000
    25  F    7.189809   5.952236   2.150811   2.167229   0.000000
    26  H    2.651755   2.702169   6.554790   7.391299   7.292995
    27  H    3.990540   2.333332   6.837113   7.557221   7.929603
    28  H    3.390146   3.456099   6.965247   6.987975   7.616475
                   26         27         28
    26  H    0.000000
    27  H    1.775418   0.000000
    28  H    2.958112   2.404757   0.000000
 Stoichiometry    C8H8F3N3O4S2
 Framework group  C1[X(C8H8F3N3O4S2)]
 Deg. of freedom    78
 Full point group                 C1      NOp   1
 Largest Abelian subgroup         C1      NOp   1
 Largest concise Abelian subgroup C1      NOp   1
                         Standard orientation:                         
 ---------------------------------------------------------------------
 Center     Atomic      Atomic             Coordinates (Angstroms)
 Number     Number       Type             X           Y           Z
 ---------------------------------------------------------------------
      1          6           0        0.907493   -0.438737   -0.042410
      2          6           0        1.070205    0.969171   -0.013099
      3          6           0        2.425300    1.644569   -0.043460
      4          6           0       -0.027112    1.797862    0.016818
      5          1           0        0.096376    2.876015    0.029719
      6          6           0       -1.347298    1.280751    0.040570
      7          6           0       -1.479656   -0.123844    0.014922
      8         16           0       -3.096847   -0.837081   -0.018063
      9          6           0       -0.374148   -0.964732   -0.031078
     10          1           0       -0.515630   -2.040956   -0.072916
     11         16           0        2.238810   -1.626852   -0.086825
     12          8           0        1.630179   -2.917014   -0.404256
     13          8           0        3.298609   -1.106139   -0.944485
     14          7           0        2.883594   -1.800500    1.419492
     15          1           0        2.196673   -2.160805    2.084863
     16          1           0        3.311088   -0.940347    1.765362
     17          7           0       -2.407415    2.116792    0.046902
     18          6           0       -3.768190    1.649522    0.249625
     19          7           0       -4.039364    0.435585   -0.516534
     20          8           0       -3.157885   -1.872804   -1.045654
     21          8           0       -3.505581   -1.180140    1.342537
     22          1           0       -2.232929    3.115444    0.083664
     23          9           0        2.350077    2.926892    0.339515
     24          9           0        2.966343    1.642436   -1.270540
     25          9           0        3.306048    1.052922    0.787118
     26          1           0       -3.958661    1.432347    1.304628
     27          1           0       -4.455581    2.424723   -0.081146
     28          1           0       -3.934812    0.574513   -1.526269
 ---------------------------------------------------------------------
 Rotational constants (GHZ):           0.4942287           0.2033521           0.1577795
 General basis read from cards:  (6D, 7F)
 There are   404 symmetry adapted cartesian basis functions of A   symmetry.
 There are   404 symmetry adapted basis functions of A   symmetry.
   404 basis functions,   720 primitive gaussians,   404 cartesian basis functions
    84 alpha electrons       84 beta electrons
       nuclear repulsion energy      2106.5312311558 Hartrees.
 NAtoms=   28 NActive=   28 NUniq=   28 SFac= 1.00D+00 NAtFMM=   60 NAOKFM=F Big=F
 Integral buffers will be    131072 words long.
 Raffenetti 2 integral format.
 Two-electron integral symmetry is turned on.
 One-electron integrals computed using PRISM.
 NBasis=   404 RedAO= T EigKep=  1.11D-06  NBF=   404
 NBsUse=   402 1.00D-06 EigRej=  6.12D-07 NBFU=   402
 ExpMin= 4.05D-02 ExpMax= 2.19D+04 ExpMxC= 3.30D+03 IAcc=3 IRadAn=         5 AccDes= 0.00D+00
 Harris functional with IExCor= 1009 and IRadAn=       5 diagonalized for initial guess.
 HarFok:  IExCor= 1009 AccDes= 0.00D+00 IRadAn=         5 IDoV= 1 UseB2=F ITyADJ=14
 ICtDFT=  3500011 ScaDFX=  1.000000  1.000000  1.000000  1.000000
 FoFCou: FMM=F IPFlag=           0 FMFlag=      100000 FMFlg1=           0
         NFxFlg=           0 DoJE=T BraDBF=F KetDBF=T FulRan=T
         wScrn=  0.000000 ICntrl=       500 IOpCl=  0 I1Cent=   200000004 NGrid=           0
         NMat0=    1 NMatS0=      1 NMatT0=    0 NMatD0=    1 NMtDS0=    0 NMtDT0=    0
 Petite list used in FoFCou.
 Requested convergence on RMS density matrix=1.00D-08 within 128 cycles.
 Requested convergence on MAX density matrix=1.00D-06.
 Requested convergence on             energy=1.00D-06.
 No special actions if energy rises.
 SCF Done:  E(RM062X) =  -1870.15929858     A.U. after   17 cycles
            NFock= 17  Conv=0.43D-08     -V/T= 2.0061

 **********************************************************************

            Population analysis using the SCF Density.

 **********************************************************************

 Orbital symmetries:
       Occupied  (A) (A) (A) (A) (A) (A) (A) (A) (A) (A) (A) (A)
                 (A) (A) (A) (A) (A) (A) (A) (A) (A) (A) (A) (A)
                 (A) (A) (A) (A) (A) (A) (A) (A) (A) (A) (A) (A)
                 (A) (A) (A) (A) (A) (A) (A) (A) (A) (A) (A) (A)
                 (A) (A) (A) (A) (A) (A) (A) (A) (A) (A) (A) (A)
                 (A) (A) (A) (A) (A) (A) (A) (A) (A) (A) (A) (A)
                 (A) (A) (A) (A) (A) (A) (A) (A) (A) (A) (A) (A)
       Virtual   (A) (A) (A) (A) (A) (A) (A) (A) (A) (A) (A) (A)
                 (A) (A) (A) (A) (A) (A) (A) (A) (A) (A) (A) (A)
                 (A) (A) (A) (A) (A) (A) (A) (A) (A) (A) (A) (A)
                 (A) (A) (A) (A) (A) (A) (A) (A) (A) (A) (A) (A)
                 (A) (A) (A) (A) (A) (A) (A) (A) (A) (A) (A) (A)
                 (A) (A) (A) (A) (A) (A) (A) (A) (A) (A) (A) (A)
                 (A) (A) (A) (A) (A) (A) (A) (A) (A) (A) (A) (A)
                 (A) (A) (A) (A) (A) (A) (A) (A) (A) (A) (A) (A)
                 (A) (A) (A) (A) (A) (A) (A) (A) (A) (A) (A) (A)
                 (A) (A) (A) (A) (A) (A) (A) (A) (A) (A) (A) (A)
                 (A) (A) (A) (A) (A) (A) (A) (A) (A) (A) (A) (A)
                 (A) (A) (A) (A) (A) (A) (A) (A) (A) (A) (A) (A)
                 (A) (A) (A) (A) (A) (A) (A) (A) (A) (A) (A) (A)
                 (A) (A) (A) (A) (A) (A) (A) (A) (A) (A) (A) (A)
                 (A) (A) (A) (A) (A) (A) (A) (A) (A) (A) (A) (A)
                 (A) (A) (A) (A) (A) (A) (A) (A) (A) (A) (A) (A)
                 (A) (A) (A) (A) (A) (A) (A) (A) (A) (A) (A) (A)
                 (A) (A) (A) (A) (A) (A) (A) (A) (A) (A) (A) (A)
                 (A) (A) (A) (A) (A) (A) (A) (A) (A) (A) (A) (A)
                 (A) (A) (A) (A) (A) (A) (A) (A) (A) (A) (A) (A)
                 (A) (A) (A) (A) (A) (A) (A) (A) (A) (A) (A) (A)
                 (A) (A) (A) (A) (A) (A) (A) (A) (A) (A) (A) (A)
                 (A) (A) (A) (A) (A) (A) (A) (A) (A) (A) (A) (A)
                 (A) (A) (A) (A) (A) (A) (A) (A) (A) (A) (A) (A)
                 (A) (A) (A) (A) (A) (A) (A) (A) (A) (A) (A) (A)
                 (A) (A) (A) (A) (A) (A) (A) (A) (A) (A) (A) (A)
                 (A) (A) (A) (A) (A) (A)
 The electronic state is 1-A.
 Alpha  occ. eigenvalues --  -90.18971 -90.18066 -25.32924 -25.32841 -25.31419
 Alpha  occ. eigenvalues --  -19.66495 -19.66286 -19.65004 -19.64787 -14.84795
 Alpha  occ. eigenvalues --  -14.83908 -14.81627 -10.84312 -10.67847 -10.67553
 Alpha  occ. eigenvalues --  -10.64261 -10.62941 -10.62886 -10.62220 -10.61953
 Alpha  occ. eigenvalues --   -8.49972  -8.48957  -6.42200  -6.42113  -6.42049
 Alpha  occ. eigenvalues --   -6.41169  -6.41110  -6.41071  -1.49317  -1.40279
 Alpha  occ. eigenvalues --   -1.39244  -1.26685  -1.25277  -1.14712  -1.14290
 Alpha  occ. eigenvalues --   -1.13389  -1.06847  -1.04277  -1.02587  -0.94783
 Alpha  occ. eigenvalues --   -0.91920  -0.85810  -0.84074  -0.79568  -0.78440
 Alpha  occ. eigenvalues --   -0.75209  -0.72841  -0.71762  -0.71309  -0.70357
 Alpha  occ. eigenvalues --   -0.67289  -0.66389  -0.64684  -0.62969  -0.61689
 Alpha  occ. eigenvalues --   -0.59975  -0.59535  -0.58996  -0.58706  -0.57979
 Alpha  occ. eigenvalues --   -0.57161  -0.56481  -0.56038  -0.55165  -0.54330
 Alpha  occ. eigenvalues --   -0.54229  -0.53218  -0.52363  -0.51449  -0.50811
 Alpha  occ. eigenvalues --   -0.48178  -0.44864  -0.43594  -0.42755  -0.42438
 Alpha  occ. eigenvalues --   -0.41834  -0.40557  -0.40343  -0.40046  -0.39734
 Alpha  occ. eigenvalues --   -0.38593  -0.38004  -0.36845  -0.31445
 Alpha virt. eigenvalues --   -0.05698  -0.03869  -0.02744  -0.00105  -0.00015
 Alpha virt. eigenvalues --    0.00859   0.02363   0.02799   0.03545   0.04075
 Alpha virt. eigenvalues --    0.04935   0.05438   0.05766   0.06273   0.06692
 Alpha virt. eigenvalues --    0.07071   0.07820   0.08196   0.08297   0.08452
 Alpha virt. eigenvalues --    0.09484   0.09620   0.09797   0.10369   0.10602
 Alpha virt. eigenvalues --    0.11094   0.11827   0.12124   0.12472   0.12698
 Alpha virt. eigenvalues --    0.13234   0.13604   0.13865   0.14254   0.14733
 Alpha virt. eigenvalues --    0.15272   0.16522   0.16746   0.16899   0.17060
 Alpha virt. eigenvalues --    0.17473   0.17870   0.18119   0.18261   0.18666
 Alpha virt. eigenvalues --    0.19068   0.19563   0.20191   0.20958   0.21355
 Alpha virt. eigenvalues --    0.21542   0.22061   0.22420   0.22691   0.23298
 Alpha virt. eigenvalues --    0.23436   0.24218   0.24516   0.24951   0.25409
 Alpha virt. eigenvalues --    0.25879   0.26432   0.26731   0.27442   0.27645
 Alpha virt. eigenvalues --    0.27893   0.28158   0.28286   0.29483   0.29886
 Alpha virt. eigenvalues --    0.30008   0.30633   0.30811   0.32099   0.32128
 Alpha virt. eigenvalues --    0.32734   0.32886   0.33746   0.33888   0.34049
 Alpha virt. eigenvalues --    0.34953   0.35254   0.35532   0.35909   0.36434
 Alpha virt. eigenvalues --    0.37466   0.37668   0.37956   0.38432   0.39432
 Alpha virt. eigenvalues --    0.39612   0.39926   0.40288   0.41304   0.41409
 Alpha virt. eigenvalues --    0.42772   0.43195   0.44217   0.44557   0.45429
 Alpha virt. eigenvalues --    0.46131   0.47533   0.48195   0.48632   0.49730
 Alpha virt. eigenvalues --    0.50624   0.53493   0.53998   0.54728   0.55255
 Alpha virt. eigenvalues --    0.58148   0.61208   0.62025   0.63699   0.64922
 Alpha virt. eigenvalues --    0.66298   0.66856   0.68041   0.68780   0.69261
 Alpha virt. eigenvalues --    0.71240   0.71730   0.72392   0.72722   0.73878
 Alpha virt. eigenvalues --    0.77299   0.78060   0.79861   0.81089   0.81951
 Alpha virt. eigenvalues --    0.82646   0.84836   0.87540   0.87985   0.88618
 Alpha virt. eigenvalues --    0.90952   0.91227   0.92834   0.93491   0.93824
 Alpha virt. eigenvalues --    0.96201   0.96893   0.99001   1.00532   1.01167
 Alpha virt. eigenvalues --    1.01804   1.03728   1.04733   1.04876   1.05631
 Alpha virt. eigenvalues --    1.07754   1.08239   1.09317   1.09716   1.11054
 Alpha virt. eigenvalues --    1.12582   1.12815   1.13515   1.14323   1.14765
 Alpha virt. eigenvalues --    1.15242   1.17438   1.17507   1.18081   1.19914
 Alpha virt. eigenvalues --    1.22423   1.23457   1.25403   1.25981   1.28339
 Alpha virt. eigenvalues --    1.29476   1.29669   1.32443   1.33765   1.35130
 Alpha virt. eigenvalues --    1.36402   1.36486   1.37040   1.38106   1.38949
 Alpha virt. eigenvalues --    1.39706   1.40205   1.41248   1.42156   1.44096
 Alpha virt. eigenvalues --    1.45089   1.46146   1.47126   1.48162   1.48911
 Alpha virt. eigenvalues --    1.49115   1.51879   1.53089   1.54808   1.55542
 Alpha virt. eigenvalues --    1.58708   1.61109   1.62877   1.64050   1.65114
 Alpha virt. eigenvalues --    1.66093   1.68608   1.69711   1.70434   1.71528
 Alpha virt. eigenvalues --    1.72425   1.73197   1.74018   1.75158   1.76080
 Alpha virt. eigenvalues --    1.76761   1.77379   1.78263   1.79204   1.80800
 Alpha virt. eigenvalues --    1.81739   1.81972   1.83618   1.84190   1.84973
 Alpha virt. eigenvalues --    1.86053   1.86617   1.87481   1.88836   1.89077
 Alpha virt. eigenvalues --    1.89152   1.90766   1.91967   1.92960   1.93307
 Alpha virt. eigenvalues --    1.95134   1.95785   1.96076   1.96566   1.97456
 Alpha virt. eigenvalues --    2.00034   2.00726   2.02518   2.04337   2.05163
 Alpha virt. eigenvalues --    2.06890   2.07524   2.08063   2.10591   2.11171
 Alpha virt. eigenvalues --    2.11403   2.11855   2.13109   2.14007   2.15089
 Alpha virt. eigenvalues --    2.16500   2.16654   2.18775   2.19028   2.21009
 Alpha virt. eigenvalues --    2.22310   2.22974   2.23639   2.24485   2.26521
 Alpha virt. eigenvalues --    2.28720   2.30464   2.31017   2.33243   2.37606
 Alpha virt. eigenvalues --    2.38725   2.39466   2.41964   2.46585   2.47034
 Alpha virt. eigenvalues --    2.47380   2.50069   2.51613   2.53288   2.54751
 Alpha virt. eigenvalues --    2.58629   2.61717   2.62961   2.67481   2.69662
 Alpha virt. eigenvalues --    2.74654   2.76068   2.77152   2.79344   2.82234
 Alpha virt. eigenvalues --    2.86478   2.89454   2.91973   2.93362   2.97848
 Alpha virt. eigenvalues --    2.99577   3.00964   3.04860   3.19379   3.19643
 Alpha virt. eigenvalues --    3.27696   3.29580   3.33020   3.94087   3.98365
 Alpha virt. eigenvalues --    4.07428   4.09323   4.17934   4.22011   4.25477
 Alpha virt. eigenvalues --    4.29824   4.33781   4.34245   4.38479   4.42052
 Alpha virt. eigenvalues --    4.42919   4.47290   4.52597   4.61122   4.75888
 Alpha virt. eigenvalues --    5.82325   6.10176   7.05449
          Condensed to atoms (all electrons):
               1          2          3          4          5          6
     1  C   70.422973 -18.987342  -0.570531  -3.343860  -0.021311  -2.812264
     2  C  -18.987342  56.465964 -11.825660  -2.833558  -0.095729  -6.051680
     3  C   -0.570531 -11.825660  23.888151  -3.189073  -0.012522  -6.841633
     4  C   -3.343860  -2.833558  -3.189073  26.258840   0.207847  -4.157327
     5  H   -0.021311  -0.095729  -0.012522   0.207847   0.460751   0.155523
     6  C   -2.812264  -6.051680  -6.841633  -4.157327   0.155523  42.122538
     7  C  -32.891266   1.595431   4.189233  -9.355398   0.075893 -13.241876
     8  S   -3.647315   0.885710  -0.024775   1.333051  -0.000734  -1.410709
     9  C   -1.161024 -15.467509   2.706230   1.469205  -0.018759  -4.346423
    10  H   -0.280236   0.039829   0.012612  -0.006877   0.000011  -0.007652
    11  S    2.372288   2.535041  -4.283393   1.601836   0.001241   2.402073
    12  O    0.085423  -0.082768  -0.072782   0.088450   0.000016   0.053334
    13  O   -0.660042   0.241283  -0.410966   0.164071   0.000060   0.178875
    14  N   -0.567816  -0.835769   0.735257  -0.126815   0.000038  -0.180303
    15  H    0.033057   0.115920  -0.031199   0.003238   0.000000   0.014877
    16  H   -0.045031   0.057279  -0.079577   0.023834  -0.000000   0.010183
    17  N   -0.227338   0.418181   0.042662  -0.174084  -0.013905  -0.375947
    18  C    0.575420  -0.482459  -0.124329  -1.310263   0.006940  -0.106297
    19  N   -0.458180  -0.085388   0.010882   0.640105   0.000142   0.640538
    20  O    0.315130  -0.031500  -0.015891  -0.021929   0.000007  -0.209410
    21  O   -0.386772   0.107208   0.004685   0.067117   0.000001  -0.023787
    22  H    0.005685   0.001183   0.002403  -0.035665   0.005746  -0.029983
    23  F   -0.106150  -0.183044  -0.045327   0.135253   0.005527   0.308628
    24  F   -0.095913   0.205309   0.225033  -0.116191  -0.000379  -0.080335
    25  F    0.035384  -0.126571   0.096396   0.015201   0.000367  -0.014974
    26  H   -0.000360   0.002443  -0.000294   0.012954  -0.000008  -0.062910
    27  H    0.004277  -0.004858  -0.000097   0.014044   0.000007   0.014988
    28  H    0.015629   0.000504  -0.000616  -0.005856  -0.000002  -0.077125
               7          8          9         10         11         12
     1  C  -32.891266  -3.647315  -1.161024  -0.280236   2.372288   0.085423
     2  C    1.595431   0.885710 -15.467509   0.039829   2.535041  -0.082768
     3  C    4.189233  -0.024775   2.706230   0.012612  -4.283393  -0.072782
     4  C   -9.355398   1.333051   1.469205  -0.006877   1.601836   0.088450
     5  H    0.075893  -0.000734  -0.018759   0.000011   0.001241   0.000016
     6  C  -13.241876  -1.410709  -4.346423  -0.007652   2.402073   0.053334
     7  C   60.958572  -1.005297   0.794495   0.184476  -6.769548  -0.365908
     8  S   -1.005297  19.628290  -1.003608   0.026663  -0.453326  -0.015934
     9  C    0.794495  -1.003608  25.735890   0.359414  -3.223419  -0.104172
    10  H    0.184476   0.026663   0.359414   0.383629  -0.030056  -0.003448
    11  S   -6.769548  -0.453326  -3.223419  -0.030056  19.910545   0.498861
    12  O   -0.365908  -0.015934  -0.104172  -0.003448   0.498861   8.732565
    13  O   -0.123541  -0.008133   0.223237   0.000510   0.510047  -0.141851
    14  N    0.507238   0.007973   0.805975   0.002849  -1.032089  -0.131679
    15  H   -0.091892  -0.002627  -0.176559  -0.000106   0.169419  -0.004826
    16  H   -0.005034  -0.000167   0.006880  -0.000018   0.078085   0.012262
    17  N    0.285736  -0.007432  -0.070693  -0.000488  -0.022242  -0.000354
    18  C    1.462195  -0.917252   0.241261  -0.001266   0.037397   0.000422
    19  N   -0.102490  -0.385509  -0.453396   0.002110  -0.006179  -0.000053
    20  O   -0.514669   0.197709   0.424204   0.003105   0.008988  -0.000435
    21  O    0.338435   0.794412  -0.489179  -0.000230  -0.017817  -0.000656
    22  H    0.061920  -0.006034  -0.006206   0.000002   0.000023   0.000000
    23  F    0.004559  -0.001459  -0.022408   0.000010   0.014574   0.000119
    24  F    0.047318   0.001441   0.013846   0.000008  -0.044090  -0.000566
    25  F    0.024721   0.000037   0.010455   0.000030   0.067577   0.001170
    26  H    0.002267   0.027895  -0.006716  -0.000001  -0.000098   0.000000
    27  H   -0.003753  -0.005840   0.004111   0.000000   0.000054  -0.000000
    28  H   -0.059977   0.115335   0.034534  -0.000005  -0.000043  -0.000001
              13         14         15         16         17         18
     1  C   -0.660042  -0.567816   0.033057  -0.045031  -0.227338   0.575420
     2  C    0.241283  -0.835769   0.115920   0.057279   0.418181  -0.482459
     3  C   -0.410966   0.735257  -0.031199  -0.079577   0.042662  -0.124329
     4  C    0.164071  -0.126815   0.003238   0.023834  -0.174084  -1.310263
     5  H    0.000060   0.000038   0.000000  -0.000000  -0.013905   0.006940
     6  C    0.178875  -0.180303   0.014877   0.010183  -0.375947  -0.106297
     7  C   -0.123541   0.507238  -0.091892  -0.005034   0.285736   1.462195
     8  S   -0.008133   0.007973  -0.002627  -0.000167  -0.007432  -0.917252
     9  C    0.223237   0.805975  -0.176559   0.006880  -0.070693   0.241261
    10  H    0.000510   0.002849  -0.000106  -0.000018  -0.000488  -0.001266
    11  S    0.510047  -1.032089   0.169419   0.078085  -0.022242   0.037397
    12  O   -0.141851  -0.131679  -0.004826   0.012262  -0.000354   0.000422
    13  O    8.689559  -0.143139   0.011218   0.000217  -0.000321   0.001063
    14  N   -0.143139   8.525019   0.217283   0.179807  -0.000075  -0.000556
    15  H    0.011218   0.217283   0.312349  -0.019053  -0.000012   0.000041
    16  H    0.000217   0.179807  -0.019053   0.313395  -0.000006   0.000038
    17  N   -0.000321  -0.000075  -0.000012  -0.000006   7.609523   0.358766
    18  C    0.001063  -0.000556   0.000041   0.000038   0.358766   6.217265
    19  N   -0.000014   0.000091  -0.000001  -0.000000  -0.469384  -0.366606
    20  O   -0.000003  -0.000017  -0.000003   0.000001   0.004702   0.097563
    21  O   -0.000054  -0.000058  -0.000012  -0.000001   0.033392  -0.135470
    22  H    0.000001   0.000004  -0.000000  -0.000000   0.256982  -0.036296
    23  F    0.000265  -0.001663  -0.000003   0.000237  -0.001217   0.001317
    24  F   -0.019751   0.006701  -0.000023  -0.000410   0.000543  -0.000502
    25  F   -0.032442   0.014221  -0.000477   0.000016   0.000187  -0.000377
    26  H   -0.000000   0.000003  -0.000000   0.000000  -0.050212   0.438655
    27  H    0.000000  -0.000000  -0.000000  -0.000000  -0.061378   0.375760
    28  H   -0.000000   0.000000  -0.000000   0.000000   0.023072  -0.021307
              19         20         21         22         23         24
     1  C   -0.458180   0.315130  -0.386772   0.005685  -0.106150  -0.095913
     2  C   -0.085388  -0.031500   0.107208   0.001183  -0.183044   0.205309
     3  C    0.010882  -0.015891   0.004685   0.002403  -0.045327   0.225033
     4  C    0.640105  -0.021929   0.067117  -0.035665   0.135253  -0.116191
     5  H    0.000142   0.000007   0.000001   0.005746   0.005527  -0.000379
     6  C    0.640538  -0.209410  -0.023787  -0.029983   0.308628  -0.080335
     7  C   -0.102490  -0.514669   0.338435   0.061920   0.004559   0.047318
     8  S   -0.385509   0.197709   0.794412  -0.006034  -0.001459   0.001441
     9  C   -0.453396   0.424204  -0.489179  -0.006206  -0.022408   0.013846
    10  H    0.002110   0.003105  -0.000230   0.000002   0.000010   0.000008
    11  S   -0.006179   0.008988  -0.017817   0.000023   0.014574  -0.044090
    12  O   -0.000053  -0.000435  -0.000656   0.000000   0.000119  -0.000566
    13  O   -0.000014  -0.000003  -0.000054   0.000001   0.000265  -0.019751
    14  N    0.000091  -0.000017  -0.000058   0.000004  -0.001663   0.006701
    15  H   -0.000001  -0.000003  -0.000012  -0.000000  -0.000003  -0.000023
    16  H   -0.000000   0.000001  -0.000001  -0.000000   0.000237  -0.000410
    17  N   -0.469384   0.004702   0.033392   0.256982  -0.001217   0.000543
    18  C   -0.366606   0.097563  -0.135470  -0.036296   0.001317  -0.000502
    19  N    8.930383  -0.220031  -0.071380   0.023340  -0.000037   0.000026
    20  O   -0.220031   8.640075  -0.210016  -0.000101  -0.000005  -0.000007
    21  O   -0.071380  -0.210016   8.436218  -0.000259  -0.000007   0.000002
    22  H    0.023340  -0.000101  -0.000259   0.303910  -0.000020   0.000000
    23  F   -0.000037  -0.000005  -0.000007  -0.000020   9.296092  -0.050159
    24  F    0.000026  -0.000007   0.000002   0.000000  -0.050159   9.168794
    25  F    0.000036  -0.000007  -0.000004   0.000003  -0.037021  -0.043712
    26  H   -0.050121   0.000597  -0.001642   0.001446   0.000000   0.000000
    27  H   -0.010047  -0.000505  -0.000103  -0.002135  -0.000000  -0.000000
    28  H    0.188124   0.007374   0.005377  -0.000346   0.000000   0.000000
              25         26         27         28
     1  C    0.035384  -0.000360   0.004277   0.015629
     2  C   -0.126571   0.002443  -0.004858   0.000504
     3  C    0.096396  -0.000294  -0.000097  -0.000616
     4  C    0.015201   0.012954   0.014044  -0.005856
     5  H    0.000367  -0.000008   0.000007  -0.000002
     6  C   -0.014974  -0.062910   0.014988  -0.077125
     7  C    0.024721   0.002267  -0.003753  -0.059977
     8  S    0.000037   0.027895  -0.005840   0.115335
     9  C    0.010455  -0.006716   0.004111   0.034534
    10  H    0.000030  -0.000001   0.000000  -0.000005
    11  S    0.067577  -0.000098   0.000054  -0.000043
    12  O    0.001170   0.000000  -0.000000  -0.000001
    13  O   -0.032442  -0.000000   0.000000  -0.000000
    14  N    0.014221   0.000003  -0.000000   0.000000
    15  H   -0.000477  -0.000000  -0.000000  -0.000000
    16  H    0.000016   0.000000  -0.000000   0.000000
    17  N    0.000187  -0.050212  -0.061378   0.023072
    18  C   -0.000377   0.438655   0.375760  -0.021307
    19  N    0.000036  -0.050121  -0.010047   0.188124
    20  O   -0.000007   0.000597  -0.000505   0.007374
    21  O   -0.000004  -0.001642  -0.000103   0.005377
    22  H    0.000003   0.001446  -0.002135  -0.000346
    23  F   -0.037021   0.000000  -0.000000   0.000000
    24  F   -0.043712   0.000000  -0.000000   0.000000
    25  F    9.309353  -0.000000   0.000000  -0.000000
    26  H   -0.000000   0.425435  -0.025872   0.003135
    27  H    0.000000  -0.025872   0.462541  -0.005637
    28  H   -0.000000   0.003135  -0.005637   0.295854
 Mulliken charges:
               1
     1  C   -1.602515
     2  C    0.422549
     3  C    1.615124
     4  C   -1.358151
     5  H    0.243234
     6  C    0.129076
     7  C   -0.001842
     8  S    1.877635
     9  C   -0.279668
    10  H    0.315124
    11  S    1.674251
    12  O   -0.547188
    13  O   -0.480150
    14  N   -0.982480
    15  H    0.449393
    16  H    0.467064
    17  N   -0.558659
    18  C   -0.311121
    19  N   -0.756960
    20  O   -0.474924
    21  O   -0.449402
    22  H    0.454395
    23  F   -0.318060
    24  F   -0.216983
    25  F   -0.319569
    26  H    0.283403
    27  H    0.244444
    28  H    0.481978
 Sum of Mulliken charges =  -0.00000
 Mulliken charges with hydrogens summed into heavy atoms:
               1
     1  C   -1.602515
     2  C    0.422549
     3  C    1.615124
     4  C   -1.114917
     6  C    0.129076
     7  C   -0.001842
     8  S    1.877635
     9  C    0.035457
    11  S    1.674251
    12  O   -0.547188
    13  O   -0.480150
    14  N   -0.066022
    17  N   -0.104264
    18  C    0.216727
    19  N   -0.274982
    20  O   -0.474924
    21  O   -0.449402
    23  F   -0.318060
    24  F   -0.216983
    25  F   -0.319569
 Electronic spatial extent (au):  <R**2>=           6433.2306
 Charge=             -0.0000 electrons
 Dipole moment (field-independent basis, Debye):
    X=             -3.8926    Y=              9.2290    Z=              2.9642  Tot=             10.4458
 Quadrupole moment (field-independent basis, Debye-Ang):
   XX=           -143.3562   YY=           -130.4968   ZZ=           -127.6423
   XY=            -19.5339   XZ=             15.6919   YZ=             -6.6397
 Traceless Quadrupole moment (field-independent basis, Debye-Ang):
   XX=             -9.5244   YY=              3.3350   ZZ=              6.1895
   XY=            -19.5339   XZ=             15.6919   YZ=             -6.6397
 Octapole moment (field-independent basis, Debye-Ang**2):
  XXX=              2.3108  YYY=             95.0895  ZZZ=              6.7150  XYY=            -29.8536
  XXY=            106.7796  XXZ=              9.7497  XZZ=             26.5700  YZZ=              4.9489
  YYZ=             15.5223  XYZ=            -10.8877
 Hexadecapole moment (field-independent basis, Debye-Ang**3):
 XXXX=          -5584.0451 YYYY=          -2042.9636 ZZZZ=           -421.1498 XXXY=           -169.8632
 XXXZ=            160.5516 YYYX=             -3.0819 YYYZ=            -34.5092 ZZZX=             62.0571
 ZZZY=            -23.3939 XXYY=          -1265.2898 XXZZ=           -962.1307 YYZZ=           -421.3937
 XXYZ=            -19.9174 YYXZ=             -3.0147 ZZXY=            -21.5342
 N-N= 2.106531231156D+03 E-N=-8.620155461118D+03  KE= 1.858846018822D+03
 Calling FoFJK, ICntrl=      2127 FMM=F ISym2X=0 I1Cent= 0 IOpClX= 0 NMat=1 NMatS=1 NMatT=0.
 ***** Axes restored to original set *****
 -------------------------------------------------------------------
 Center     Atomic                   Forces (Hartrees/Bohr)
 Number     Number              X              Y              Z
 -------------------------------------------------------------------
      1        6          -0.004272412   -0.003414228   -0.005843826
      2        6           0.001953718   -0.000352094    0.005202080
      3        6          -0.003759887    0.009946659    0.009212956
      4        6           0.005640628   -0.001044251   -0.006993698
      5        1          -0.001306338    0.000073482    0.001666365
      6        6          -0.003787046    0.000349003    0.019448603
      7        6          -0.004582515    0.002051812   -0.006010428
      8       16           0.031305276   -0.013289118    0.018251315
      9        6          -0.000334059   -0.000213524   -0.001271378
     10        1           0.000586226    0.001152403    0.000886774
     11       16           0.006802929    0.030191053    0.024636533
     12        8          -0.008303167   -0.007105873   -0.009387971
     13        8           0.004606693   -0.011848826   -0.009142813
     14        7          -0.003576923   -0.012694549   -0.006614442
     15        1          -0.000607071    0.002356301    0.002908433
     16        1           0.001467811    0.002143323    0.002194615
     17        7          -0.002894463    0.001689430   -0.014735284
     18        6           0.004252429    0.001155477    0.000183108
     19        7          -0.009617897    0.004406880   -0.007492198
     20        8          -0.012739079   -0.002375921   -0.007216016
     21        8          -0.010011594    0.010166992   -0.003182666
     22        1           0.002702420   -0.000430880    0.002119837
     23        9          -0.000150259   -0.001723073   -0.003098491
     24        9           0.002250802   -0.005583653   -0.003317861
     25        9           0.000744437   -0.002476786   -0.001797002
     26        1           0.002164756   -0.000823339    0.001111918
     27        1          -0.000227823    0.000366211   -0.001984160
     28        1           0.001692408   -0.002672910    0.000265696
 -------------------------------------------------------------------
 Cartesian Forces:  Max     0.031305276 RMS     0.008121572

 GradGradGradGradGradGradGradGradGradGradGradGradGradGradGradGradGradGrad
 Berny optimization.
 FormGI is forming the generalized inverse of G from B-inverse, IUseBI=4.
 Internal  Forces:  Max     0.013836364 RMS     0.003333338
 Search for a local minimum.
 Step number   1 out of a maximum of  160
 All quantities printed in internal units (Hartrees-Bohrs-Radians)
 Mixed Optimization -- RFO/linear search
 Second derivative matrix not updated -- first step.
 ITU=  0
     Eigenvalues ---    0.00570   0.00576   0.01242   0.01391   0.01450
     Eigenvalues ---    0.01518   0.01588   0.01694   0.01848   0.01988
     Eigenvalues ---    0.02020   0.02128   0.02173   0.02209   0.02254
     Eigenvalues ---    0.03550   0.04499   0.05270   0.07037   0.07716
     Eigenvalues ---    0.09173   0.09788   0.09879   0.10409   0.10525
     Eigenvalues ---    0.10710   0.11492   0.11777   0.13053   0.14129
     Eigenvalues ---    0.14522   0.15703   0.15998   0.16000   0.16000
     Eigenvalues ---    0.16000   0.20000   0.20006   0.20719   0.23108
     Eigenvalues ---    0.23941   0.24661   0.24979   0.24993   0.25000
     Eigenvalues ---    0.25000   0.25000   0.25000   0.25000   0.27340
     Eigenvalues ---    0.28364   0.30914   0.34373   0.35053   0.35093
     Eigenvalues ---    0.35245   0.35364   0.36744   0.38651   0.40354
     Eigenvalues ---    0.41198   0.42858   0.43001   0.43613   0.44027
     Eigenvalues ---    0.44195   0.45236   0.45437   0.47425   0.49224
     Eigenvalues ---    0.53348   0.55567   0.56967   0.57115   0.90982
     Eigenvalues ---    0.91021   0.91496   0.91855
 RFO step:  Lambda=-6.70506058D-03 EMin= 5.69575141D-03
 Linear search not attempted -- first point.
 Iteration  1 RMS(Cart)=  0.04608380 RMS(Int)=  0.00114726
 Iteration  2 RMS(Cart)=  0.00148939 RMS(Int)=  0.00017564
 Iteration  3 RMS(Cart)=  0.00000222 RMS(Int)=  0.00017563
 Iteration  4 RMS(Cart)=  0.00000000 RMS(Int)=  0.00017563
 Variable       Old X    -DE/DX   Delta X   Delta X   Delta X     New X
                                 (Linear)    (Quad)   (Total)
    R1        2.67884  -0.00394   0.00000  -0.00906  -0.00904   2.66980
    R2        2.61807   0.00144   0.00000   0.00301   0.00304   2.62111
    R3        3.37304   0.00465   0.00000   0.01659   0.01659   3.38963
    R4        2.86178   0.00122   0.00000   0.00386   0.00386   2.86563
    R5        2.59913   0.00365   0.00000   0.00715   0.00713   2.60627
    R6        2.53299   0.00259   0.00000   0.00448   0.00448   2.53748
    R7        2.53425  -0.00659   0.00000  -0.01143  -0.01143   2.52281
    R8        2.54631  -0.00007   0.00000  -0.00012  -0.00012   2.54619
    R9        2.05088   0.00005   0.00000   0.00013   0.00013   2.05101
   R10        2.67972  -0.00315   0.00000  -0.00731  -0.00734   2.67238
   R11        2.66650  -0.00323   0.00000  -0.00624  -0.00630   2.66020
   R12        2.55138   0.01348   0.00000   0.02444   0.02433   2.57571
   R13        3.34065   0.00415   0.00000   0.01524   0.01531   3.35596
   R14        2.62621   0.00117   0.00000   0.00249   0.00250   2.62872
   R15        3.13745   0.00822   0.00000   0.01949   0.01956   3.15702
   R16        2.75951  -0.01291   0.00000  -0.01401  -0.01401   2.74551
   R17        2.76184  -0.01203   0.00000  -0.01312  -0.01312   2.74872
   R18        2.05279   0.00090   0.00000   0.00251   0.00251   2.05530
   R19        2.76166  -0.01133   0.00000  -0.01235  -0.01235   2.74931
   R20        2.75790  -0.01384   0.00000  -0.01495  -0.01495   2.74294
   R21        3.11369   0.00756   0.00000   0.01730   0.01730   3.13099
   R22        1.93122  -0.00286   0.00000  -0.00640  -0.00640   1.92482
   R23        1.92922  -0.00243   0.00000  -0.00541  -0.00541   1.92382
   R24        2.74573   0.00245   0.00000   0.00572   0.00564   2.75137
   R25        1.91703  -0.00345   0.00000  -0.00751  -0.00751   1.90951
   R26        2.76067  -0.00370   0.00000  -0.01156  -0.01151   2.74916
   R27        2.06705   0.00109   0.00000   0.00312   0.00312   2.07017
   R28        2.05525   0.00200   0.00000   0.00561   0.00561   2.06085
   R29        1.93621  -0.00272   0.00000  -0.00615  -0.00615   1.93006
    A1        2.07497  -0.00050   0.00000  -0.00158  -0.00162   2.07335
    A2        2.18462   0.00086   0.00000   0.00323   0.00308   2.18770
    A3        2.02359  -0.00036   0.00000  -0.00154  -0.00168   2.02191
    A4        2.14747   0.00157   0.00000   0.00612   0.00609   2.15356
    A5        2.10281  -0.00105   0.00000  -0.00390  -0.00390   2.09892
    A6        2.03267  -0.00051   0.00000  -0.00198  -0.00201   2.03065
    A7        1.95058  -0.00392   0.00000  -0.01982  -0.01995   1.93063
    A8        1.95913  -0.00093   0.00000   0.00038   0.00036   1.95948
    A9        1.95703  -0.00186   0.00000  -0.00669  -0.00680   1.95023
   A10        1.86042   0.00241   0.00000   0.00839   0.00835   1.86878
   A11        1.85524   0.00117   0.00000  -0.00289  -0.00310   1.85214
   A12        1.87508   0.00369   0.00000   0.02258   0.02257   1.89765
   A13        2.10369  -0.00252   0.00000  -0.01460  -0.01459   2.08910
   A14        2.12164   0.00072   0.00000   0.00318   0.00316   2.12480
   A15        2.05783   0.00180   0.00000   0.01138   0.01138   2.06921
   A16        2.03758   0.00126   0.00000   0.00388   0.00392   2.04150
   A17        2.10050   0.00076   0.00000   0.00186   0.00193   2.10243
   A18        2.14460  -0.00201   0.00000  -0.00563  -0.00574   2.13886
   A19        2.08032   0.00277   0.00000   0.01407   0.01410   2.09442
   A20        2.12738  -0.00165   0.00000  -0.00749  -0.00753   2.11985
   A21        2.07484  -0.00111   0.00000  -0.00615  -0.00621   2.06864
   A22        1.78816  -0.00208   0.00000  -0.02578  -0.02599   1.76218
   A23        1.91509  -0.00187   0.00000  -0.01193  -0.01235   1.90274
   A24        1.91047  -0.00232   0.00000  -0.01523  -0.01564   1.89482
   A25        1.88460  -0.00102   0.00000  -0.01068  -0.01106   1.87354
   A26        1.87620  -0.00142   0.00000  -0.01059  -0.01117   1.86503
   A27        2.06796   0.00740   0.00000   0.06177   0.06193   2.12989
   A28        2.10185   0.00122   0.00000   0.00587   0.00588   2.10772
   A29        2.09015  -0.00111   0.00000  -0.00607  -0.00615   2.08399
   A30        2.09109  -0.00011   0.00000  -0.00005  -0.00014   2.09095
   A31        1.85710  -0.00341   0.00000  -0.02396  -0.02431   1.83279
   A32        1.89522  -0.00189   0.00000  -0.01486  -0.01511   1.88011
   A33        1.91694  -0.00500   0.00000  -0.03752  -0.03813   1.87881
   A34        2.08262   0.00717   0.00000   0.06538   0.06529   2.14791
   A35        1.84264   0.00117   0.00000   0.00134   0.00040   1.84304
   A36        1.86573   0.00111   0.00000   0.00261   0.00188   1.86761
   A37        1.94909   0.00117   0.00000   0.01467   0.01446   1.96354
   A38        1.96578  -0.00060   0.00000   0.00396   0.00374   1.96952
   A39        1.93685   0.00129   0.00000   0.02057   0.02022   1.95707
   A40        2.13753  -0.00062   0.00000  -0.00365  -0.00377   2.13377
   A41        2.06542  -0.00000   0.00000   0.00022   0.00028   2.06570
   A42        2.06305   0.00064   0.00000   0.00322   0.00329   2.06634
   A43        1.94755   0.00016   0.00000  -0.00312  -0.00323   1.94432
   A44        1.94067   0.00136   0.00000   0.00784   0.00780   1.94847
   A45        1.89681  -0.00029   0.00000   0.00405   0.00402   1.90083
   A46        1.88444  -0.00210   0.00000  -0.02072  -0.02070   1.86374
   A47        1.89174   0.00056   0.00000   0.00789   0.00794   1.89968
   A48        1.90159   0.00030   0.00000   0.00427   0.00425   1.90584
   A49        1.95426   0.00162   0.00000   0.00826   0.00814   1.96240
   A50        1.91972  -0.00089   0.00000   0.00492   0.00462   1.92434
   A51        1.96625   0.00102   0.00000   0.01897   0.01879   1.98504
    D1       -3.12497  -0.00055   0.00000  -0.01921  -0.01920   3.13902
    D2       -0.00768  -0.00034   0.00000  -0.00705  -0.00705  -0.01473
    D3        0.02151  -0.00112   0.00000  -0.04775  -0.04777  -0.02626
    D4        3.13879  -0.00091   0.00000  -0.03559  -0.03562   3.10317
    D5       -0.00546   0.00013   0.00000   0.00232   0.00230  -0.00316
    D6        3.12066  -0.00031   0.00000  -0.01680  -0.01676   3.10390
    D7        3.13170   0.00065   0.00000   0.02828   0.02820  -3.12328
    D8       -0.02537   0.00021   0.00000   0.00916   0.00914  -0.01622
    D9       -2.92839  -0.00319   0.00000  -0.07340  -0.07299  -3.00138
   D10       -0.66614   0.00217   0.00000  -0.01813  -0.01842  -0.68456
   D11        1.36840  -0.00036   0.00000  -0.04436  -0.04444   1.32396
   D12        0.21795  -0.00374   0.00000  -0.10119  -0.10081   0.11714
   D13        2.48020   0.00162   0.00000  -0.04592  -0.04624   2.43396
   D14       -1.76844  -0.00091   0.00000  -0.07215  -0.07226  -1.84070
   D15       -2.85812   0.00048   0.00000  -0.01557  -0.01564  -2.87375
   D16        1.33581   0.00077   0.00000  -0.01274  -0.01275   1.32306
   D17       -0.77695  -0.00200   0.00000  -0.03752  -0.03743  -0.81438
   D18        0.30688   0.00029   0.00000  -0.02724  -0.02732   0.27956
   D19       -1.78238   0.00058   0.00000  -0.02442  -0.02443  -1.80681
   D20        2.38805  -0.00220   0.00000  -0.04919  -0.04911   2.33894
   D21       -3.13137   0.00009   0.00000  -0.00256  -0.00247  -3.13384
   D22        0.01749   0.00013   0.00000   0.00311   0.00314   0.02063
   D23       -0.01254   0.00032   0.00000   0.00894   0.00896  -0.00358
   D24        3.13632   0.00036   0.00000   0.01460   0.01457  -3.13230
   D25       -0.01356   0.00028   0.00000   0.00534   0.00538  -0.00819
   D26       -3.12198   0.00028   0.00000   0.00163   0.00168  -3.12030
   D27        3.13512   0.00034   0.00000   0.01097   0.01102  -3.13704
   D28        0.02670   0.00034   0.00000   0.00726   0.00733   0.03403
   D29       -3.10245  -0.00090   0.00000  -0.02320  -0.02329  -3.12574
   D30        0.00024  -0.00050   0.00000  -0.01019  -0.01022  -0.00997
   D31        0.00505  -0.00084   0.00000  -0.01922  -0.01934  -0.01429
   D32        3.10774  -0.00044   0.00000  -0.00622  -0.00627   3.10148
   D33       -2.99514  -0.00058   0.00000  -0.00138  -0.00149  -2.99663
   D34       -0.05532  -0.00041   0.00000  -0.00221  -0.00225  -0.05757
   D35        0.18173  -0.00065   0.00000  -0.00553  -0.00560   0.17613
   D36        3.12155  -0.00048   0.00000  -0.00636  -0.00636   3.11519
   D37        0.31866   0.00008   0.00000   0.02747   0.02743   0.34609
   D38        2.31742  -0.00287   0.00000  -0.00228  -0.00207   2.31535
   D39       -1.66870   0.00361   0.00000   0.05801   0.05778  -1.61092
   D40       -2.78521  -0.00029   0.00000   0.01491   0.01479  -2.77042
   D41       -0.78645  -0.00325   0.00000  -0.01484  -0.01471  -0.80116
   D42        1.51061   0.00324   0.00000   0.04545   0.04514   1.55575
   D43        0.00915   0.00031   0.00000   0.00652   0.00655   0.01570
   D44       -3.11697   0.00076   0.00000   0.02570   0.02574  -3.09122
   D45        3.11195   0.00079   0.00000   0.01992   0.01988   3.13183
   D46       -0.01416   0.00124   0.00000   0.03910   0.03907   0.02491
   D47       -0.85310  -0.00112   0.00000  -0.02948  -0.02951  -0.88260
   D48        1.34728   0.00075   0.00000   0.00528   0.00528   1.35257
   D49       -2.87403   0.00237   0.00000   0.00028   0.00007  -2.87396
   D50       -0.67365   0.00424   0.00000   0.03505   0.03486  -0.63879
   D51        1.15930  -0.00521   0.00000  -0.06238  -0.06223   1.09707
   D52       -2.92351  -0.00335   0.00000  -0.02762  -0.02744  -2.95094
   D53        1.08499   0.00069   0.00000   0.02085   0.02095   1.10594
   D54       -1.10820  -0.00150   0.00000  -0.02154  -0.02161  -1.12981
   D55       -0.91067   0.00639   0.00000   0.06559   0.06572  -0.84495
   D56       -3.10386   0.00419   0.00000   0.02320   0.02316  -3.08070
   D57        3.13798  -0.00359   0.00000  -0.01528  -0.01525   3.12273
   D58        0.94479  -0.00578   0.00000  -0.05767  -0.05781   0.88697
   D59       -0.75970   0.00066   0.00000   0.01199   0.01205  -0.74765
   D60        1.34543  -0.00097   0.00000  -0.01116  -0.01116   1.33427
   D61       -2.84474   0.00005   0.00000   0.00152   0.00160  -2.84314
   D62        2.58340   0.00057   0.00000   0.01314   0.01315   2.59655
   D63       -1.59465  -0.00106   0.00000  -0.01001  -0.01006  -1.60472
   D64        0.49836  -0.00005   0.00000   0.00268   0.00270   0.50106
   D65        1.11329   0.00072   0.00000   0.01836   0.01855   1.13184
   D66       -1.06147  -0.00016   0.00000  -0.00946  -0.00948  -1.07095
   D67       -1.02443   0.00034   0.00000   0.02454   0.02462  -0.99981
   D68        3.08400  -0.00054   0.00000  -0.00328  -0.00341   3.08059
   D69       -3.08186   0.00083   0.00000   0.02655   0.02668  -3.05517
   D70        1.02657  -0.00005   0.00000  -0.00127  -0.00135   1.02523
         Item               Value     Threshold  Converged?
 Maximum Force            0.013836     0.000450     NO 
 RMS     Force            0.003333     0.000300     NO 
 Maximum Displacement     0.216727     0.001800     NO 
 RMS     Displacement     0.046223     0.001200     NO 
 Predicted change in Energy=-3.618389D-03
 GradGradGradGradGradGradGradGradGradGradGradGradGradGradGradGradGradGrad

                          Input orientation:                          
 ---------------------------------------------------------------------
 Center     Atomic      Atomic             Coordinates (Angstroms)
 Number     Number       Type             X           Y           Z
 ---------------------------------------------------------------------
      1          6           0       -1.483405    0.715863   -0.822631
      2          6           0       -2.614297    0.840868   -1.660160
      3          6           0       -4.024091    1.032967   -1.135631
      4          6           0       -2.470904    0.805471   -3.031404
      5          1           0       -3.344999    0.909617   -3.666303
      6          6           0       -1.209309    0.620578   -3.642997
      7          6           0       -0.099314    0.483666   -2.788106
      8         16           0        1.526443    0.271976   -3.470678
      9          6           0       -0.236891    0.540121   -1.405020
     10          1           0        0.644725    0.478204   -0.771120
     11         16           0       -1.504779    0.798749    0.969038
     12          8           0       -0.104149    0.813825    1.362302
     13          8           0       -2.446140    1.835029    1.352212
     14          7           0       -2.109912   -0.637565    1.531146
     15          1           0       -1.517854   -1.430771    1.290769
     16          1           0       -3.080691   -0.788854    1.264492
     17          7           0       -1.094052    0.614564   -5.001109
     18          6           0        0.145524    0.253623   -5.674165
     19          7           0        1.298609    0.853055   -5.020328
     20          8           0        2.443396    1.177000   -2.799165
     21          8           0        1.796887   -1.152251   -3.589734
     22          1           0       -1.935731    0.694201   -5.554541
     23          9           0       -4.925019    0.790262   -2.101276
     24          9           0       -4.238027    2.278012   -0.703938
     25          9           0       -4.306152    0.174189   -0.136434
     26          1           0        0.307038   -0.829882   -5.669521
     27          1           0        0.103066    0.605425   -6.705545
     28          1           0        1.284200    1.874288   -5.016495
 ---------------------------------------------------------------------
                    Distance matrix (angstroms):
                    1          2          3          4          5
     1  C    0.000000
     2  C    1.412798   0.000000
     3  C    2.579459   1.516426   0.000000
     4  C    2.421128   1.379176   2.461320   0.000000
     5  H    3.404342   2.136179   2.623105   1.085350   0.000000
     6  C    2.835256   2.440116   3.792090   1.414162   2.155286
     7  C    2.415101   2.779388   4.293748   2.405658   3.389267
     8  S    4.033407   4.554925   6.069594   4.056644   4.916889
     9  C    1.387032   2.409897   3.828622   2.776031   3.861381
    10  H    2.141978   3.397520   4.715768   3.863047   4.948343
    11  S    1.793713   2.854030   3.291113   4.115456   4.988496
    12  O    2.585706   3.928976   4.653347   4.990617   5.983239
    13  O    2.628561   3.176636   3.053293   4.502965   5.181682
    14  N    2.786493   3.553111   3.683267   4.798909   5.561716
    15  H    3.012588   3.882076   4.270673   4.958858   5.778273
    16  H    3.028462   3.380400   3.157471   4.622601   5.221820
    17  N    4.197801   3.677541   4.868481   2.410789   2.633539
    18  C    5.138526   4.906496   6.212193   3.759576   4.079900
    19  N    5.037765   5.157685   6.591993   4.262313   4.837321
    20  O    4.420305   5.195246   6.679556   4.933793   5.859090
    21  O    4.680494   5.210982   6.684428   4.728472   5.540412
    22  H    4.753529   3.955777   4.899263   2.581668   2.365985
    23  F    3.672217   2.352994   1.342776   2.624510   2.227110
    24  F    3.168965   2.369860   1.335015   3.272338   3.383135
    25  F    2.955027   2.372462   1.347388   3.485328   3.731575
    26  H    5.393269   5.234557   6.541027   4.165453   4.513991
    27  H    6.094076   5.735452   6.945513   4.490507   4.606374
    28  H    5.156557   5.247021   6.629244   4.379927   4.917631
                    6          7          8          9         10
     6  C    0.000000
     7  C    1.407719   0.000000
     8  S    2.763251   1.775895   0.000000
     9  C    2.441436   1.391057   2.729137   0.000000
    10  H    3.421315   2.149851   2.847380   1.087617   0.000000
    11  S    4.624924   4.023772   5.401562   2.703808   2.784109
    12  O    5.129498   4.163522   5.129340   2.783991   2.285813
    13  O    5.287415   4.947323   6.440871   3.762964   3.987851
    14  N    5.400534   4.894446   6.250487   3.676442   3.759440
    15  H    5.352129   4.723828   5.902412   3.576669   3.545746
    16  H    5.438016   5.189553   6.691254   4.120639   4.430336
    17  N    1.363007   2.429819   3.053945   3.697583   4.575451
    18  C    2.468981   2.905546   2.600505   4.295802   4.933507
    19  N    2.870668   2.659596   1.670621   3.940322   4.315536
    20  O    3.789975   2.635566   1.452859   3.087587   2.799375
    21  O    3.490412   2.629527   1.454558   3.431232   3.454048
    22  H    2.046243   3.327148   4.062931   4.486460   5.439350
    23  F    4.026438   4.883970   6.615531   4.746144   5.734871
    24  F    4.534125   4.969142   6.701353   4.418242   5.204333
    25  F    4.699542   4.982432   6.719071   4.278096   5.000644
    26  H    2.917180   3.192660   2.745168   4.512065   5.081285
    27  H    3.331930   3.924552   3.549867   5.311817   5.960452
    28  H    3.110606   2.968780   2.239561   4.139621   4.514553
                   11         12         13         14         15
    11  S    0.000000
    12  O    1.454870   0.000000
    13  O    1.451503   2.554972   0.000000
    14  N    1.656849   2.481557   2.501756   0.000000
    15  H    2.252652   2.653656   3.395724   1.018573   0.000000
    16  H    2.256385   3.382004   2.700946   1.018039   1.689736
    17  N    5.987093   6.443028   6.609264   6.728310   6.629535
    18  C    6.866790   7.063146   7.654249   7.602480   7.356243
    19  N    6.613201   6.535077   7.456318   7.534041   7.278617
    20  O    5.470878   4.892820   6.447828   6.540401   6.262550
    21  O    5.957331   5.657036   7.165888   6.461532   5.906301
    22  H    6.538634   7.156237   7.018921   7.211858   7.179722
    23  F    4.596188   5.936137   4.377552   4.812277   5.296012
    24  F    3.529549   4.847900   2.763123   4.245593   5.013309
    25  F    3.075685   4.506903   2.904153   2.874584   3.519576
    26  H    7.071462   7.233075   7.999154   7.597910   7.220591
    27  H    7.843581   8.073198   8.540364   8.618896   8.409192
    28  H    6.690425   6.613709   7.380881   7.791084   7.652222
                   16         17         18         19         20
    16  H    0.000000
    17  N    6.721166   0.000000
    18  C    7.722705   1.455963   0.000000
    19  N    7.834098   2.404594   1.454795   0.000000
    20  O    7.133963   4.204572   3.794531   2.519731   0.000000
    21  O    6.891033   3.670306   3.008045   2.513192   2.543301
    22  H    7.071747   1.010471   2.130737   3.282007   5.196339
    23  F    4.150126   4.807933   6.226068   6.874471   7.411488
    24  F    3.823586   5.578290   6.929417   7.163523   7.088273
    25  F    2.095662   5.846075   7.105645   7.465027   7.324764
    26  H    7.717443   2.120436   1.095487   2.058383   4.102504
    27  H    8.694930   2.082853   1.090556   2.081009   4.589515
    28  H    8.099098   2.691324   2.087024   1.021341   2.597402
                   21         22         23         24         25
    21  O    0.000000
    22  H    4.604595   0.000000
    23  F    7.153523   4.568382   0.000000
    24  F    7.517626   5.597979   2.153580   0.000000
    25  F    7.136653   5.936767   2.150151   2.180086   0.000000
    26  H    2.578582   2.714049   6.536946   7.414420   7.273564
    27  H    3.958123   2.342943   6.820198   7.593544   7.923408
    28  H    3.385030   3.471319   6.944640   7.018271   7.612974
                   26         27         28
    26  H    0.000000
    27  H    1.781869   0.000000
    28  H    2.948529   2.420327   0.000000
 Stoichiometry    C8H8F3N3O4S2
 Framework group  C1[X(C8H8F3N3O4S2)]
 Deg. of freedom    78
 Full point group                 C1      NOp   1
 Largest Abelian subgroup         C1      NOp   1
 Largest concise Abelian subgroup C1      NOp   1
                         Standard orientation:                         
 ---------------------------------------------------------------------
 Center     Atomic      Atomic             Coordinates (Angstroms)
 Number     Number       Type             X           Y           Z
 ---------------------------------------------------------------------
      1          6           0        0.912548   -0.444495   -0.040569
      2          6           0        1.079274    0.958304   -0.021733
      3          6           0        2.434908    1.637798   -0.031353
      4          6           0       -0.021654    1.788895   -0.007435
      5          1           0        0.116962    2.865334   -0.000318
      6          6           0       -1.339697    1.276874    0.013796
      7          6           0       -1.480638   -0.123765    0.009469
      8         16           0       -3.099759   -0.853320    0.010665
      9          6           0       -0.373149   -0.964728   -0.026436
     10          1           0       -0.513851   -2.042047   -0.076398
     11         16           0        2.241725   -1.646530   -0.116774
     12          8           0        1.580353   -2.927927   -0.309786
     13          8           0        3.251404   -1.131885   -1.023719
     14          7           0        2.934918   -1.724849    1.386056
     15          1           0        2.287809   -2.061950    2.096763
     16          1           0        3.385156   -0.853700    1.659532
     17          7           0       -2.409361    2.121552    0.002567
     18          6           0       -3.772920    1.651318    0.201104
[...]
 00019217,0.00860847,-0.00100061,0.00079414,0.00117034,0.00019259,0.003
 99461,-0.00114377,-0.00112734,0.00323072,0.00049918,0.00006298,-0.0005
 2656,0.00000080,0.00002168,0.00010497,0.00006880,-0.00005588,-0.001090
 55,0.00007813,-0.00000171,0.00020406,-0.00017851,0.00008687,0.00023840
 ,-0.00009129,-0.00015207,0.00034542,-0.00002042,0.00004288,-0.00004886
 ,0.00006362,0.00000788,-0.00001862,-0.34961119,0.01075638,-0.17867098,
 -0.01119338,-0.00315870,-0.01629420,-0.00583570,0.00135897,0.00017746,
 0.00039275,0.00007768,-0.00045932,0.00038830,0.00010956,-0.00044142,0.
 35623779,-0.00003093,0.00011545,-0.00066989,0.00008198,-0.00090326,0.0
 0049690,-0.00019648,0.00050274,-0.00002085,0.00030163,-0.00187611,-0.0
 0130690,0.00027518,0.00080270,-0.00016838,0.00151085,-0.00439310,0.007
 56934,-0.00166319,0.00308466,-0.00015850,0.00064652,-0.00009744,-0.000
 11976,0.00049020,0.00132625,0.00038857,-0.00001579,-0.00020150,0.00007
 863,0.00000318,0.00025365,0.00066804,-0.00009804,-0.00006986,-0.000107
 86,0.00011990,-0.00012828,-0.00014196,0.00002194,0.00000688,-0.0002224
 4,0.00001609,-0.00001764,0.00004613,-0.00003158,0.00000595,0.00003034,
 -0.00002334,0.00111359,-0.01230143,0.00762040,-0.00457981,0.00356216,-
 0.00325451,0.00004363,-0.00037563,-0.00018451,-0.00011746,-0.00017099,
 -0.00017653,-0.00019130,0.00016949,-0.00703115,0.00568037,0.00082023,-
 0.00010093,0.00054788,-0.00015174,0.00014909,-0.00068187,0.00030859,-0
 .00011213,-0.00039570,-0.00230591,0.00078238,0.00207717,0.00164563,-0.
 00040721,-0.00039553,-0.03191308,0.00001583,-0.01860546,0.00328609,-0.
 00064529,-0.00418178,0.00076588,0.00054764,-0.00254586,-0.00211928,0.0
 0044539,0.00013898,0.00020906,-0.00000958,-0.00035176,-0.00000308,-0.0
 0002618,-0.00043786,0.00015626,-0.00000722,0.00010948,-0.00001110,0.00
 002935,0.00009711,-0.00002588,-0.00005788,0.00012896,-0.00001142,0.000
 01841,-0.00002919,0.00000783,0.00001457,-0.00003390,-0.17358317,-0.004
 32114,-0.18089565,0.01251259,0.00106467,0.01405823,0.00561421,-0.00082
 429,0.00028367,-0.00012559,0.00001551,0.00055274,-0.00006135,-0.000143
 91,0.00032690,0.18473997,0.00370181,0.18980268,-0.00439016,-0.00019708
 ,0.00754786,-0.03801049,-0.00839189,-0.03610674,-0.19791569,-0.0278660
 3,-0.09247477,-0.00488031,0.00003374,0.00039893,-0.00502910,-0.0003845
 4,0.00211306,0.00100826,0.00035028,-0.00257286,-0.00065710,-0.00013979
 ,0.00036905,0.00227376,-0.00048296,-0.00145162,-0.00219673,0.00077120,
 -0.00242601,-0.00050889,0.00028791,0.00054506,0.00083076,-0.00085222,0
 .00404759,-0.00076751,0.00004444,-0.00112397,0.00013732,-0.00030479,-0
 .00116037,0.00023976,0.00097264,-0.00099067,0.00003546,-0.00018676,0.0
 0011902,-0.00011868,-0.00034506,0.00031512,-0.00039730,-0.00034893,0.0
 0191917,0.00042304,-0.00013914,-0.00030476,-0.00041172,0.00001512,0.00
 081323,-0.00084411,-0.00012090,0.00019920,-0.00068320,0.00063952,0.000
 41941,-0.00029181,0.00008363,-0.00009807,0.23211522,-0.00035493,0.0015
 6016,0.00045630,0.00006918,0.00777522,-0.00148133,-0.02881758,-0.07975
 763,-0.02427732,0.00082397,0.00080426,-0.00066432,-0.00027785,-0.00041
 872,0.00019670,-0.00040849,0.00010751,0.00010509,0.00014391,0.00002069
 ,0.00039099,-0.00005029,-0.00020141,-0.00005940,0.00020130,-0.00045444
 ,-0.00048438,-0.00004158,-0.00016808,0.00001655,0.00065627,-0.00204478
 ,-0.00033564,-0.00019948,0.00035504,0.00006008,-0.00079354,0.00115932,
 -0.00015628,0.00012013,0.00060372,0.00006247,0.00004116,0.00006420,-0.
 00002715,-0.00024383,0.00010436,-0.00026935,0.00005432,0.00013292,0.00
 000563,-0.00005554,-0.00002752,-0.00000381,0.00004611,0.00003338,0.000
 03362,0.00003973,0.00007843,0.00005550,0.00001947,0.00009964,0.0000079
 6,-0.00003434,-0.00011604,0.00001945,0.04751458,0.09647308,-0.00006652
 ,-0.00019941,0.00223338,-0.00572348,-0.00226147,-0.00141772,-0.1000708
 7,-0.02621160,-0.15810040,0.00311481,0.00119228,-0.00527210,0.00385369
 ,-0.00045910,0.00151415,0.00102542,0.00031068,0.00135383,0.00041912,-0
 .00019421,0.00020454,0.00013025,-0.00004016,-0.00035588,0.00015854,0.0
 0000289,-0.00011544,-0.00008014,0.00007136,-0.00000490,0.00488557,-0.0
 0067816,-0.00187999,-0.00131252,0.00009547,0.00046009,-0.00242158,0.00
 034921,-0.00002831,-0.00102142,0.00039875,0.00014351,-0.00009283,-0.00
 019419,-0.00012655,0.00087455,-0.00114745,0.00094862,0.00002224,-0.000
 10637,0.00058317,-0.00029896,-0.00001776,0.00004059,0.00012701,-0.0000
 0862,0.00029326,0.00011417,0.00010187,0.00016888,-0.00002729,0.0000070
 5,0.00009997,-0.00027850,0.00003433,0.00014676,0.15394015,0.05083701,0
 .25742543,0.00060843,-0.00020845,0.00021480,-0.00403817,0.03519634,0.0
 1578348,-0.09633653,0.05886858,0.02305443,-0.00353493,0.00108063,-0.00
 165354,-0.00001117,0.00097643,0.00048077,0.00014957,-0.00198779,-0.000
 20060,-0.00100342,0.00012770,0.00049239,0.00237585,-0.00007537,-0.0011
 7476,-0.00037390,-0.00126418,0.00025671,-0.00005362,0.00001541,0.00011
 884,-0.00074497,-0.00004366,0.00271503,-0.00029982,0.00001232,-0.00079
 381,-0.00194889,0.00099693,-0.00408152,0.00055698,0.00058316,-0.001160
 36,0.00006916,-0.00010133,0.00022295,-0.00036270,0.00010817,-0.0000038
 6,-0.00057479,-0.00010643,0.00076385,0.00028547,-0.00006396,-0.0002026
 6,-0.00035342,-0.00000634,0.00063990,-0.00083026,-0.00019111,0.0000346
 3,-0.00075493,0.00055269,0.00037927,-0.00009568,0.00006257,-0.00009692
 ,0.00978601,-0.03370294,-0.02195726,0.08319944,0.00005077,0.00095744,-
 0.00101740,0.00936102,-0.01984421,-0.01221501,0.06035256,-0.27799445,-
 0.07229704,0.00328578,-0.00025115,0.00090420,-0.00041404,-0.00114802,0
 .00014486,0.00015309,0.00104918,-0.00006699,0.00057443,-0.00010078,-0.
 00019631,-0.00180142,-0.00029328,0.00079001,0.00092978,0.00064476,0.00
 028007,0.00015266,-0.00007451,-0.00018837,0.00178845,-0.00706864,-0.00
 341902,-0.00003606,0.00118443,0.00093617,-0.00176549,0.00389833,0.0009
 4593,0.00016042,0.00119998,0.00129750,0.00011436,0.00041435,-0.0001859
 6,-0.00082875,0.00051409,-0.00131575,0.00064093,0.00022336,-0.00064873
 ,-0.00037862,0.00001131,0.00012417,0.00033361,0.00009231,-0.00042722,0
 .00070350,0.00031829,0.00003077,0.00058696,-0.00024699,-0.00025501,-0.
 00002659,-0.00019630,0.00012767,-0.02087350,-0.03564427,-0.04200688,-0
 .05407359,0.40574190,0.00015968,-0.00063155,-0.00156851,0.00867672,-0.
 01887163,0.00280932,0.02281830,-0.07451970,-0.09648932,0.00053382,0.00
 021849,0.00071838,-0.00039937,-0.00052760,0.00028933,-0.00058045,0.001
 07591,0.00051566,0.00082847,-0.00008912,0.00055910,-0.00126099,0.00003
 313,0.00047737,0.00132839,0.00056791,-0.00008974,0.00018425,0.00004270
 ,-0.00025965,0.00459550,-0.00452362,-0.00524641,-0.00126992,0.00072114
 ,0.00116652,-0.00673102,0.00381899,-0.00244425,-0.00061049,0.00054266,
 0.00087446,0.00005225,0.00011801,-0.00012907,0.00032190,-0.00025489,0.
 00020043,0.00031634,-0.00000418,-0.00013766,-0.00024148,-0.00000960,0.
 00011507,0.00024874,-0.00000777,-0.00021983,0.00050702,0.00014116,0.00
 004966,0.00040285,-0.00028818,-0.00015677,-0.00004577,-0.00001006,0.00
 008643,-0.01361311,-0.05075328,-0.02529465,-0.01107491,0.10674243,0.11
 420986,0.00131298,0.00071469,-0.00030928,-0.00410823,-0.02134205,0.035
 20228,-0.09915507,-0.03448267,0.05193614,-0.00629228,-0.00009113,-0.00
 152189,-0.00002453,-0.00064864,0.00030955,0.00038111,0.00124100,0.0007
 0415,-0.00045962,-0.00006379,0.00090919,0.00201625,-0.00040932,-0.0008
 9165,0.00057050,0.00023645,-0.00043594,0.00001352,-0.00000402,0.000056
 47,-0.00031988,-0.00231878,0.00205270,-0.00064896,0.00043118,-0.000717
 45,-0.00294890,-0.00267017,-0.00383236,-0.00009018,0.00209443,-0.00230
 840,-0.00007271,-0.00018070,-0.00039840,-0.00447866,0.00153272,-0.0018
 4213,-0.00085659,0.00015587,0.00096557,0.00048973,-0.00018699,-0.00008
 857,-0.00040512,0.00002899,0.00049193,-0.00074602,-0.00014065,0.000003
 33,-0.00059176,0.00050918,0.00026722,-0.00009568,0.00001459,-0.0001123
 9,0.01028997,0.01525975,-0.03531033,0.01427079,0.00099328,-0.00512557,
 0.09197874,0.00109829,0.00106082,-0.00046767,-0.00071442,0.00080733,0.
 01192067,-0.03642710,-0.13281120,0.08831088,-0.00320748,0.00047678,-0.
 00005855,0.00017548,-0.00014585,-0.00038068,0.00073893,-0.00024512,0.0
 0071649,-0.00032612,-0.00003313,-0.00043482,0.00057647,-0.00043704,-0.
 00010758,-0.00073721,0.00018512,-0.00000327,-0.00008255,-0.00003719,0.
 00011746,-0.00215860,-0.00906276,0.00174181,0.00038977,0.00152557,-0.0
 0066000,-0.00385155,0.00106507,-0.00280917,0.00251056,0.00139549,0.000
 93736,0.00045165,0.00058349,0.00029380,0.00028606,0.00137531,-0.001213
 64,-0.00054749,0.00023337,0.00008790,0.00028189,-0.00009930,-0.0000175
 3,-0.00016908,0.00008093,0.00001057,-0.00025302,0.00003307,-0.00004240
 ,-0.00016258,0.00032197,0.00003148,0.00004920,-0.00010260,-0.00008856,
 0.00978642,0.00948213,0.02014048,-0.00687650,-0.07323900,0.03652941,0.
 03920696,0.19756652,-0.00035290,-0.00076337,0.00023231,0.00949412,0.02
 058406,-0.02154241,0.05269922,0.09081291,-0.19286464,0.00465936,-0.000
 03787,0.00146529,-0.00060090,0.00070290,0.00085507,-0.00070357,-0.0012
 4133,-0.00058816,0.00108623,0.00011043,0.00016936,-0.00207029,0.000614
 20,0.00064444,0.00097959,-0.00112587,0.00035350,0.00021369,0.00002507,
 -0.00035802,0.00943149,0.00246630,-0.00842366,-0.00218428,-0.00033908,
 0.00202339,-0.00756968,-0.00281743,0.00028259,-0.00359398,0.00020810,0
 .00025106,-0.00057316,-0.00063042,-0.00071069,-0.00003630,-0.00159171,
 0.00127022,0.00087594,-0.00029142,-0.00003417,-0.00053063,0.00024997,0
 .00006833,0.00047652,-0.00009317,-0.00028348,0.00087445,0.00014712,0.0
 0014736,0.00058721,-0.00056754,-0.00019064,-0.00011270,0.00005462,0.00
 018262,-0.02036345,0.02626692,-0.07299947,-0.00271506,0.02192077,0.009
 94945,-0.03996178,-0.15456417,0.28006536,0.00081147,-0.00008396,0.0010
 3858,-0.00037140,-0.00025677,-0.00138881,0.00036432,0.00003321,-0.0001
 5927,-0.00179920,-0.00040087,0.00217792,0.00010831,0.00020027,-0.00002
 125,0.00076622,0.00213221,-0.00825338,0.00124287,0.00005013,-0.0000478
 8,-0.00061515,-0.00454359,0.00299874,-0.00012580,0.00007068,0.00021963
 ,-0.00002953,0.00001277,0.00002924,0.00007441,0.00002835,-0.00114178,0
 .00016502,-0.00001726,0.00025085,-0.00014177,0.00007996,0.00024624,-0.
 00007962,-0.00016561,0.00032766,-0.00002256,0.00004999,-0.00004673,0.0
 0004532,0.00002133,-0.00003323,-0.01729678,0.02896585,0.01382014,-0.04
 760536,0.03659770,-0.00022549,-0.00357236,-0.03386538,-0.00396863,0.00
 034058,0.00076647,-0.00057810,-0.00002134,0.00137725,-0.00000380,-0.00
 056452,0.00149012,0.00060284,-0.00015594,-0.00001340,-0.00000882,-0.00
 009348,0.00006286,0.00004947,-0.00008807,-0.00004431,0.00005587,0.0703
 8083,0.00016560,-0.00000549,-0.00018306,-0.00018023,0.00000044,-0.0001
 1857,-0.00006156,0.00000080,0.00002041,-0.00006927,-0.00015973,-0.0001
 3598,-0.00005015,0.00000993,0.00001514,-0.00009518,0.00035510,0.000371
 31,0.00012791,-0.00015693,-0.00075953,0.00051095,-0.00340820,0.0008754
 5,-0.00001607,-0.00006046,0.00021274,0.00001322,-0.00000137,-0.0000105
 3,0.00001688,0.00000119,0.00027164,-0.00004823,0.00000366,-0.00006262,
 0.00002603,-0.00001830,-0.00006706,0.00001782,0.00004536,-0.00009373,0
 .00000922,-0.00001323,0.00001323,-0.00001352,-0.00000508,0.00001250,0.
 00909773,0.00070839,-0.00253350,0.02795948,-0.31429215,-0.00410542,-0.
 00566338,-0.01627375,-0.00252710,0.00004312,0.00065883,-0.00020144,0.0
 0153479,0.00073101,0.00231092,0.00013861,-0.00100290,-0.00069957,0.000
 02959,0.00000207,-0.00000598,0.00001212,-0.00000849,-0.00000307,0.0000
 2473,0.00001062,-0.00001456,-0.03294076,0.34029751,-0.00073631,0.00004
 594,-0.00025304,0.00032382,0.00019720,0.00087397,0.00005781,-0.0000618
 1,0.00004797,0.00093560,0.00045476,-0.00123661,-0.00009029,-0.00013199
 ,0.00002496,-0.00041661,-0.00184982,0.00396258,-0.00055662,0.00069726,
 0.00016526,0.00026938,-0.00510441,-0.00183684,0.00030620,0.00007099,-0
 .00058642,0.00001760,-0.00001211,-0.00004004,-0.00000883,-0.00007165,0
 .00010959,-0.00003684,0.00001979,-0.00001976,-0.00000078,0.00000449,-0
 .00001106,0.00000592,0.00001438,-0.00000355,0.00000491,-0.00000546,-0.
 00000632,0.00000531,-0.00000306,-0.00000535,0.01087441,-0.01843554,-0.
 00232263,-0.00120009,0.00601554,-0.05666310,-0.00355879,-0.02017160,-0
 .00008915,-0.00004114,0.00085981,0.00030703,-0.00057392,0.00151663,0.0
 0004880,0.00023207,-0.00079979,-0.00035944,-0.00002336,-0.00000012,-0.
 00002583,-0.00000839,0.00000211,-0.00000921,-0.00001610,0.00002320,-0.
 00000212,-0.00075498,0.00817552,0.05672364,0.00020232,-0.00004615,0.00
 021158,-0.00049921,0.00019327,-0.00031012,0.00015111,-0.00006038,0.000
 02503,0.00019073,0.00028807,0.00186728,0.00003958,-0.00007713,-0.00005
 411,-0.00514396,-0.00051085,-0.00128276,0.00034507,0.00050107,-0.00015
 713,-0.00260568,-0.00453163,0.00148404,0.00034243,-0.00007133,0.000073
 12,-0.00007685,0.00001199,0.00009421,-0.00006084,0.00001453,-0.0003107
 9,0.00010916,-0.00000657,0.00007102,-0.00000175,0.00000573,0.00006280,
 -0.00000041,-0.00002950,0.00008019,-0.00001285,0.00001147,-0.00001193,
 0.00000375,0.00000813,-0.00001210,-0.00267546,-0.00680595,0.03554177,-
 0.04814660,0.00306060,-0.01084319,-0.00695389,0.01140975,-0.03060870,-
 0.00122764,-0.00012688,-0.00274409,0.00034645,0.00096734,-0.00035074,0
 .00059856,-0.00001103,0.00015692,-0.00003726,0.00000409,0.00001520,-0.
 00003123,0.00004626,0.00001142,-0.00007390,-0.00004233,0.00007619,0.00
 121226,0.00079583,-0.00236711,0.06325252,-0.00014137,0.00001158,-0.000
 05615,0.00013778,-0.00010128,0.00012433,0.00001053,0.00003217,-0.00001
 497,0.00008045,-0.00010950,-0.00065141,-0.00000577,0.00003369,0.000018
 19,0.00203669,0.00023310,-0.00045033,-0.00033537,0.00031129,-0.0000009
 3,-0.00127274,-0.00399868,-0.00154232,0.00006005,-0.00014355,-0.000143
 05,-0.00000909,-0.00000538,-0.00000853,0.00000917,0.00004491,0.0000378
 2,-0.00001213,-0.00000587,-0.00000635,-0.00000410,-0.00000730,0.000001
 48,0.00000328,0.00000627,-0.00001842,0.00000285,-0.00000400,-0.0000025
 4,0.00000071,-0.00000056,-0.00000158,0.00185451,0.00398175,-0.01465835
 ,0.00441162,-0.09334965,0.10516731,-0.00404900,0.00672036,-0.01699739,
 -0.00057846,0.00046930,-0.00119950,0.00071614,0.00140790,0.00136827,-0
 .00048240,0.00087068,0.00063204,-0.00000938,-0.00000681,-0.00001247,-0
 .00000028,-0.00001785,-0.00000035,0.00000615,0.00000537,-0.00001057,0.
 00187506,-0.00836138,0.02973632,-0.00507221,0.09150612,-0.00005866,-0.
 00001060,-0.00005291,0.00028656,-0.00010853,0.00005229,-0.00023459,0.0
 0007014,0.00001509,-0.00014927,-0.00015652,-0.00081461,0.00000468,0.00
 002038,0.00000125,0.00318411,0.00051231,0.00130754,-0.00018726,0.00014
 610,0.00050845,-0.00058202,-0.00268860,0.00168451,0.00000824,0.0000004
 2,-0.00006234,-0.00001045,0.00000446,0.00001572,-0.00004909,0.00000929
 ,0.00023955,-0.00001466,-0.00000576,-0.00007487,0.00004353,-0.00003542
 ,-0.00006867,0.00002552,0.00004567,-0.00007767,0.00000265,-0.00001336,
 0.00001531,-0.00001111,-0.00000595,0.00001315,0.00374234,0.00274667,-0
 .01656275,-0.00814730,0.09506836,-0.28912991,-0.00695315,0.00438671,-0
 .01437402,-0.00046910,-0.00003331,-0.00089205,0.00010943,0.00054498,0.
 00026365,0.00028979,0.00006924,0.00019593,0.00007875,0.00000089,0.0000
 0926,0.00006142,-0.00006036,-0.00002275,0.00007357,0.00002232,-0.00005
 724,-0.00023863,0.00058434,0.00312012,0.00891330,-0.10104773,0.3147773
 0,0.00008683,-0.00004469,-0.00026608,0.00016003,0.00005895,0.00002959,
 -0.00050800,0.00004099,0.00024949,0.00010837,-0.00000913,-0.00020169,-
 0.00002987,-0.00004284,-0.00000479,-0.00080188,-0.00062265,0.00209464,
 -0.00039371,-0.00032159,0.00045285,0.00148278,0.00453361,0.01198274,-0
 .00027176,0.00023637,0.00032257,0.00006549,0.00003448,-0.00001882,0.00
 001145,-0.00002462,0.00083544,-0.00014894,-0.00001498,-0.00024540,0.00
 008776,-0.00008226,-0.00023411,0.00004165,0.00011962,-0.00025548,0.000
 01932,-0.00003498,0.00005678,-0.00003173,-0.00001967,0.00005358,0.0020
 2324,0.00152275,-0.00042523,-0.00293648,-0.03243228,-0.00090108,-0.027
 93481,0.01820776,-0.02617525,-0.00282877,-0.00234002,-0.00070868,0.001
 08024,0.00271234,-0.00447046,0.00009630,-0.00002167,-0.00020712,0.0001
 5645,-0.00000019,-0.00001023,0.00014019,-0.00009266,-0.00008205,0.0001
 3258,0.00004867,-0.00014118,-0.00292875,-0.00138524,-0.00264287,0.0007
 5357,0.00076732,0.00028141,0.03236845,0.00021394,-0.00007171,-0.000206
 47,0.00009011,-0.00001990,-0.00019018,-0.00036236,0.00016067,0.0001342
 4,-0.00004982,-0.00009428,0.00005748,0.00001732,0.00002033,-0.00000674
 ,-0.00022552,0.00000687,0.00015136,-0.00029958,0.00085015,-0.00100553,
 0.00297514,-0.01278656,-0.00124765,0.00022498,0.00013601,0.00027312,-0
 .00000583,0.00003009,0.00005127,-0.00002177,0.00003735,0.00048401,-0.0
 0005028,-0.00002623,-0.00014652,0.00009085,-0.00010481,-0.00016671,0.0
 0003390,0.00006536,-0.00013935,0.00000708,-0.00001935,0.00002842,-0.00
 002005,-0.00000762,0.00002724,0.00072620,0.00066398,0.00126969,0.00396
 499,-0.00840852,-0.00196120,-0.01401854,-0.43243054,-0.00402998,-0.001
 12181,0.00163174,-0.00170844,-0.00053184,0.00100559,0.00161910,0.00025
 308,0.00018705,-0.00011991,0.00011390,-0.00001646,0.00000242,0.0001088
 7,-0.00012181,-0.00005733,0.00008895,0.00000423,-0.00007485,-0.0014823
 1,0.00094255,-0.00118657,0.00007383,0.00047733,-0.00006614,0.00920659,
 0.44788848,-0.00025136,0.00028976,0.00006426,-0.00006583,-0.00002822,0
 .00009905,0.00035045,-0.00003630,-0.00014209,0.00004924,0.00001568,0.0
 0017800,0.00003667,0.00000448,-0.00001184,0.00034940,0.00088388,-0.001
 07641,-0.00042377,-0.00205321,-0.00100120,0.00141116,0.03604067,0.0014
 7783,0.00064328,-0.00058913,-0.00042262,-0.00001568,-0.00000835,-0.000
 00650,0.00008683,0.00015507,-0.00051293,0.00004216,-0.00004447,0.00015
 318,-0.00007102,0.00000071,0.00014390,-0.00003260,-0.00010918,0.000152
 45,-0.00001927,0.00002951,-0.00002945,0.00002104,0.00000950,-0.0000331
 0,-0.00022269,0.00174113,0.00076607,0.00596732,-0.02107514,0.00051329,
 -0.02261168,-0.02357149,-0.04649516,0.00103397,-0.00405510,0.00072683,
 -0.00189015,0.00606966,-0.00508170,-0.00013072,-0.00029517,0.00017844,
 -0.00011583,-0.00000280,-0.00000422,-0.00009482,0.00005341,0.00004676,
 -0.00009984,-0.00003576,0.00009436,-0.00494640,-0.00134150,-0.00191346
 ,0.00036869,-0.00026282,-0.00002934,0.02063144,0.00821520,0.05216558\\
 -0.00001689,-0.00000075,-0.00000260,0.00000182,-0.00000398,0.00000985,
 0.00002653,0.00003784,0.00000177,0.00000332,0.00000062,-0.00000929,0.0
 0000051,0.00000127,0.00000125,-0.00001404,-0.00000132,-0.00001756,0.00
 000650,0.00000316,0.00001856,-0.00000641,0.00000558,-0.00000550,0.0000
 1882,-0.00000623,-0.00000337,0.00000011,-0.00000040,0.00000046,0.00000
 429,0.00000120,-0.00001141,0.00000318,0.00000382,-0.00000380,-0.000001
 97,0.00001113,0.00000593,-0.00000355,-0.00000814,0.00001767,-0.0000010
 7,-0.00000629,-0.00000896,-0.00000217,-0.00000459,-0.00001060,0.000005
 46,0.00000761,0.00000905,0.00001978,0.00000420,0.00000639,-0.00002283,
 -0.00000504,0.00000846,0.00000286,-0.00000326,0.00000133,-0.00000008,-
 0.00000691,-0.00000205,-0.00000375,0.00000164,0.00000076,-0.00001368,0
 .00000399,-0.00000744,-0.00000261,-0.00002377,-0.00000595,-0.00000856,
 -0.00000993,0.00001574,-0.00000116,0.00000118,-0.00000415,-0.00000151,
 -0.00000122,-0.00000226,0.00000711,-0.00000139,-0.00000229\\\@
 The archive entry for this job was punched.


 OLD HORSE! OLD HORSE! WHAT BROUGHT YOU HERE?
 FROM SACARAP' TO PORTLAND PIER
 I'VE CARTED STONE THIS MANY A YEAR;
 TILL, KILLED BY BLOWS AND SORE ABUSE,
 THEY SALTED ME DOWN FOR SAILORS' USE.
 THE SAILORS THEY DO ME DESPISE;
 THEY TURN ME OVER AND DAMN MY EYES;
 CUT OFF MY MEAT, AND SCRAPE MY BONES,
 AND PITCH ME OVER TO DAVY JONES.

    SAILORS' COMPLAINT ABOUT THE BEEF
    SERVED ON SHIPBOARD, CIRCA 1835.
 Job cpu time:       0 days  3 hours 35 minutes 17.5 seconds.
 Elapsed time:       0 days  0 hours 14 minutes  9.6 seconds.
 File lengths (MBytes):  RWF=    529 Int=      0 D2E=      0 Chk=     14 Scr=      1
 Normal termination of Gaussian 16 at Fri Jul  1 09:31:06 2022.
