 Entering Gaussian System, Link 0=g16
 AtFile(1): /home/561/yj5695/Basis/6-31pGd.gbs
 Initial command:
 /apps/gaussian/g16c01/g16/l1.exe "/jobfs/49976749.gadi-pbs/Gau-543614.inp" -scrdir="/jobfs/49976749.gadi-pbs/"
 Entering Link 1 = /apps/gaussian/g16c01/g16/l1.exe PID=    543623.
  
 Copyright (c) 1988-2019, Gaussian, Inc.  All Rights Reserved.
  
 This is part of the Gaussian(R) 16 program.  It is based on
 the Gaussian(R) 09 system (copyright 2009, Gaussian, Inc.),
 the Gaussian(R) 03 system (copyright 2003, Gaussian, Inc.),
 the Gaussian(R) 98 system (copyright 1998, Gaussian, Inc.),
 the Gaussian(R) 94 system (copyright 1995, Gaussian, Inc.),
 the Gaussian 92(TM) system (copyright 1992, Gaussian, Inc.),
 the Gaussian 90(TM) system (copyright 1990, Gaussian, Inc.),
 the Gaussian 88(TM) system (copyright 1988, Gaussian, Inc.),
 the Gaussian 86(TM) system (copyright 1986, Carnegie Mellon
 University), and the Gaussian 82(TM) system (copyright 1983,
 Carnegie Mellon University). Gaussian is a federally registered
 trademark of Gaussian, Inc.
  
 This software contains proprietary and confidential information,
 including trade secrets, belonging to Gaussian, Inc.
  
 This software is provided under written license and may be
 used, copied, transmitted, or stored only in accord with that
 written license.
  
 The following legend is applicable only to US Government
 contracts under FAR:
  
                    RESTRICTED RIGHTS LEGEND
  
 Use, reproduction and disclosure by the US Government is
 subject to restrictions as set forth in subparagraphs (a)
 and (c) of the Commercial Computer Software - Restricted
 Rights clause in FAR 52.227-19.
  
 Gaussian, Inc.
 340 Quinnipiac St., Bldg. 40, Wallingford CT 06492
  
  
 ---------------------------------------------------------------
 Warning -- This program may not be used in any manner that
 competes with the business of Gaussian, Inc. or will provide
 assistance to any competitor of Gaussian, Inc.  The licensee
 of this program is prohibited from giving any competitor of
 Gaussian, Inc. access to this program.  By using this program,
 the user acknowledges that Gaussian, Inc. is engaged in the
 business of creating and licensing software in the field of
 computational chemistry and represents and warrants to the
 licensee that it is not a competitor of Gaussian, Inc. and that
 it will not use this program in any manner prohibited above.
 ---------------------------------------------------------------
  

 Cite this work as:
 Gaussian 16, Revision C.01,
 M. J. Frisch, G. W. Trucks, H. B. Schlegel, G. E. Scuseria, 
 M. A. Robb, J. R. Cheeseman, G. Scalmani, V. Barone, 
 G. A. Petersson, H. Nakatsuji, X. Li, M. Caricato, A. V. Marenich, 
 J. Bloino, B. G. Janesko, R. Gomperts, B. Mennucci, H. P. Hratchian, 
 J. V. Ortiz, A. F. Izmaylov, J. L. Sonnenberg, D. Williams-Young, 
 F. Ding, F. Lipparini, F. Egidi, J. Goings, B. Peng, A. Petrone, 
 T. Henderson, D. Ranasinghe, V. G. Zakrzewski, J. Gao, N. Rega, 
 G. Zheng, W. Liang, M. Hada, M. Ehara, K. Toyota, R. Fukuda, 
 J. Hasegawa, M. Ishida, T. Nakajima, Y. Honda, O. Kitao, H. Nakai, 
 T. Vreven, K. Throssell, J. A. Montgomery, Jr., J. E. Peralta, 
 F. Ogliaro, M. J. Bearpark, J. J. Heyd, E. N. Brothers, K. N. Kudin, 
 V. N. Staroverov, T. A. Keith, R. Kobayashi, J. Normand, 
 K. Raghavachari, A. P. Rendell, J. C. Burant, S. S. Iyengar, 
 J. Tomasi, M. Cossi, J. M. Millam, M. Klene, C. Adamo, R. Cammi, 
 J. W. Ochterski, R. L. Martin, K. Morokuma, O. Farkas, 
 J. B. Foresman, and D. J. Fox, Gaussian, Inc., Wallingford CT, 2019.
 
 ******************************************
 Gaussian 16:  ES64L-G16RevC.01  3-Jul-2019
                 1-Jul-2022 
 ******************************************
 %nproc=16
 Will use up to   16 processors via shared memory.
 %mem=50gb
 --------------------------------------------------
 #M062X/gen 6D INT(grid=ultrafine) OPT Freq=noraman
 --------------------------------------------------
 1/18=20,19=15,26=4,38=1/1,3;
 2/9=110,12=2,17=6,18=5,40=1/2;
 3/5=7,8=2,11=2,25=1,30=1,71=1,74=-55,75=-5/1,2,3;
 4//1;
 5/5=2,38=5/2;
 6/7=2,8=2,9=2,10=2,28=1/1;
 7//1,2,3,16;
 1/18=20,19=15,26=4/3(2);
 2/9=110/2;
 99//99;
 2/9=110/2;
 3/5=7,6=1,8=2,11=2,25=1,30=1,71=1,74=-55,75=-5,82=7/1,2,3;
 4/5=5,16=3,69=1/1;
 5/5=2,38=5/2;
 7//1,2,3,16;
 1/18=20,19=15,26=4/3(-5);
 2/9=110/2;
 6/7=2,8=2,9=2,10=2,19=2,28=1/1;
 99/9=1/99;
 ----------
 HA.35.freq
 ----------
 Symbolic Z-matrix:
 Charge =  0 Multiplicity = 1
 C                    -1.31072   0.72852  -0.75001 
 C                    -2.40659   0.54659  -1.61953 
 Cl                   -4.03525   0.58173  -1.01704 
 C                    -2.22679   0.33393  -2.96725 
 H                    -3.08266   0.20158  -3.62218 
 C                    -0.92645   0.27867  -3.51564 
 C                     0.15379   0.45703  -2.63423 
 S                     1.80867   0.381    -3.22932 
 C                    -0.03042   0.68715  -1.2752 
 H                     0.83635   0.83754  -0.63759 
 S                    -1.55283   1.00573   0.99599 
 O                    -2.24925   2.28086   1.1616 
 O                    -2.14278  -0.20384   1.56829 
 N                    -0.08218   1.18152   1.68966 
 H                     0.42232   2.02016   1.39911 
 H                     0.49801   0.34177   1.66732 
 N                    -0.74719   0.11008  -4.85066 
 C                     0.54094  -0.2419   -5.41343 
 N                     1.55787   0.69428  -4.86541 
 O                     2.5886    1.48484  -2.66798 
 O                     2.35489  -0.96708  -3.01997 
 H                    -1.56241  -0.16128  -5.39507 
 C                     2.85828   0.6475   -5.57629 
 C                     0.49216  -0.12522  -6.93434 
 S                    -0.87468  -1.05301  -7.70469 
 C                    -0.58453  -2.75484  -7.15036 
 C                     0.60952  -3.41988  -7.78621 
 H                     0.82149  -1.27142  -5.13864 
 H                     2.75047   1.17705  -6.52191 
 H                     3.18889  -0.38157  -5.75577 
 H                     3.60485   1.17452  -4.98067 
 H                     1.4366   -0.44935  -7.36755 
 H                     0.31366   0.91626  -7.22167 
 H                    -1.47208  -3.32223  -7.44416 
 H                    -0.48062  -2.82577  -6.06443 
 F                     0.54916  -3.43452  -9.12884 
 F                     0.71008  -4.7024   -7.38624 
 F                     1.77187  -2.82041  -7.45735 
 

 GradGradGradGradGradGradGradGradGradGradGradGradGradGradGradGradGradGrad
 Berny optimization.
 Initialization pass.
                           ----------------------------
                           !    Initial Parameters    !
                           ! (Angstroms and Degrees)  !
 --------------------------                            --------------------------
 ! Name  Definition              Value          Derivative Info.                !
 --------------------------------------------------------------------------------
 ! R1    R(1,2)                  1.4107         estimate D2E/DX2                !
 ! R2    R(1,9)                  1.3845         estimate D2E/DX2                !
 ! R3    R(1,11)                 1.7844         estimate D2E/DX2                !
 ! R4    R(2,3)                  1.7369         estimate D2E/DX2                !
 ! R5    R(2,4)                  1.3762         estimate D2E/DX2                !
 ! R6    R(4,5)                  1.0858         estimate D2E/DX2                !
 ! R7    R(4,6)                  1.4123         estimate D2E/DX2                !
 ! R8    R(6,7)                  1.4056         estimate D2E/DX2                !
 ! R9    R(6,17)                 1.3575         estimate D2E/DX2                !
 ! R10   R(7,8)                  1.7603         estimate D2E/DX2                !
 ! R11   R(7,9)                  1.3906         estimate D2E/DX2                !
 ! R12   R(8,19)                 1.6846         estimate D2E/DX2                !
 ! R13   R(8,20)                 1.4635         estimate D2E/DX2                !
 ! R14   R(8,21)                 1.4695         estimate D2E/DX2                !
 ! R15   R(9,10)                 1.0865         estimate D2E/DX2                !
 ! R16   R(11,12)                1.4623         estimate D2E/DX2                !
 ! R17   R(11,13)                1.4624         estimate D2E/DX2                !
 ! R18   R(11,14)                1.6355         estimate D2E/DX2                !
 ! R19   R(14,15)                1.0209         estimate D2E/DX2                !
 ! R20   R(14,16)                1.0209         estimate D2E/DX2                !
 ! R21   R(17,18)                1.4491         estimate D2E/DX2                !
 ! R22   R(17,22)                1.0172         estimate D2E/DX2                !
 ! R23   R(18,19)                1.4869         estimate D2E/DX2                !
 ! R24   R(18,24)                1.5262         estimate D2E/DX2                !
 ! R25   R(18,28)                1.1019         estimate D2E/DX2                !
 ! R26   R(19,23)                1.4828         estimate D2E/DX2                !
 ! R27   R(23,29)                1.0891         estimate D2E/DX2                !
 ! R28   R(23,30)                1.0957         estimate D2E/DX2                !
 ! R29   R(23,31)                1.0908         estimate D2E/DX2                !
 ! R30   R(24,25)                1.8228         estimate D2E/DX2                !
 ! R31   R(24,32)                1.0884         estimate D2E/DX2                !
 ! R32   R(24,33)                1.095          estimate D2E/DX2                !
 ! R33   R(25,26)                1.8132         estimate D2E/DX2                !
 ! R34   R(26,27)                1.5074         estimate D2E/DX2                !
 ! R35   R(26,34)                1.0936         estimate D2E/DX2                !
 ! R36   R(26,35)                1.0932         estimate D2E/DX2                !
 ! R37   R(27,36)                1.3441         estimate D2E/DX2                !
 ! R38   R(27,37)                1.3472         estimate D2E/DX2                !
 ! R39   R(27,38)                1.3485         estimate D2E/DX2                !
 ! A1    A(2,1,9)              118.7321         estimate D2E/DX2                !
 ! A2    A(2,1,11)             121.1813         estimate D2E/DX2                !
 ! A3    A(9,1,11)             120.0866         estimate D2E/DX2                !
 ! A4    A(1,2,3)              120.7977         estimate D2E/DX2                !
 ! A5    A(1,2,4)              121.4701         estimate D2E/DX2                !
 ! A6    A(3,2,4)              117.7321         estimate D2E/DX2                !
 ! A7    A(2,4,5)              120.4345         estimate D2E/DX2                !
 ! A8    A(2,4,6)              120.4371         estimate D2E/DX2                !
 ! A9    A(5,4,6)              119.1278         estimate D2E/DX2                !
 ! A10   A(4,6,7)              117.3325         estimate D2E/DX2                !
 ! A11   A(4,6,17)             120.5502         estimate D2E/DX2                !
 ! A12   A(7,6,17)             122.0707         estimate D2E/DX2                !
 ! A13   A(6,7,8)              120.3351         estimate D2E/DX2                !
 ! A14   A(6,7,9)              122.1425         estimate D2E/DX2                !
 ! A15   A(8,7,9)              117.5205         estimate D2E/DX2                !
 ! A16   A(7,8,19)             100.3892         estimate D2E/DX2                !
 ! A17   A(7,8,20)             109.8012         estimate D2E/DX2                !
 ! A18   A(7,8,21)             109.9321         estimate D2E/DX2                !
 ! A19   A(19,8,20)            108.1552         estimate D2E/DX2                !
 ! A20   A(19,8,21)            111.3649         estimate D2E/DX2                !
 ! A21   A(20,8,21)            116.0519         estimate D2E/DX2                !
 ! A22   A(1,9,7)              119.879          estimate D2E/DX2                !
 ! A23   A(1,9,10)             120.7306         estimate D2E/DX2                !
 ! A24   A(7,9,10)             119.3898         estimate D2E/DX2                !
 ! A25   A(1,11,12)            108.1135         estimate D2E/DX2                !
 ! A26   A(1,11,13)            108.0092         estimate D2E/DX2                !
 ! A27   A(1,11,14)            108.0414         estimate D2E/DX2                !
 ! A28   A(12,11,13)           118.9987         estimate D2E/DX2                !
 ! A29   A(12,11,14)           106.6471         estimate D2E/DX2                !
 ! A30   A(13,11,14)           106.5989         estimate D2E/DX2                !
 ! A31   A(11,14,15)           114.3272         estimate D2E/DX2                !
 ! A32   A(11,14,16)           114.4135         estimate D2E/DX2                !
 ! A33   A(15,14,16)           112.8679         estimate D2E/DX2                !
 ! A34   A(6,17,18)            121.9697         estimate D2E/DX2                !
 ! A35   A(6,17,22)            116.9787         estimate D2E/DX2                !
 ! A36   A(18,17,22)           116.0901         estimate D2E/DX2                !
 ! A37   A(17,18,19)           108.173          estimate D2E/DX2                !
 ! A38   A(17,18,24)           109.8792         estimate D2E/DX2                !
 ! A39   A(17,18,28)           110.8812         estimate D2E/DX2                !
 ! A40   A(19,18,24)           109.9388         estimate D2E/DX2                !
 ! A41   A(19,18,28)           108.7975         estimate D2E/DX2                !
 ! A42   A(24,18,28)           109.153          estimate D2E/DX2                !
 ! A43   A(8,19,18)            110.0403         estimate D2E/DX2                !
 ! A44   A(8,19,23)            109.2193         estimate D2E/DX2                !
 ! A45   A(18,19,23)           113.7813         estimate D2E/DX2                !
 ! A46   A(19,23,29)           108.3061         estimate D2E/DX2                !
 ! A47   A(19,23,30)           111.8883         estimate D2E/DX2                !
 ! A48   A(19,23,31)           108.8571         estimate D2E/DX2                !
 ! A49   A(29,23,30)           110.1385         estimate D2E/DX2                !
 ! A50   A(29,23,31)           107.8742         estimate D2E/DX2                !
 ! A51   A(30,23,31)           109.6763         estimate D2E/DX2                !
 ! A52   A(18,24,25)           113.968          estimate D2E/DX2                !
 ! A53   A(18,24,32)           110.2514         estimate D2E/DX2                !
 ! A54   A(18,24,33)           109.8408         estimate D2E/DX2                !
 ! A55   A(25,24,32)           109.3223         estimate D2E/DX2                !
 ! A56   A(25,24,33)           104.5356         estimate D2E/DX2                !
 ! A57   A(32,24,33)           108.6771         estimate D2E/DX2                !
 ! A58   A(24,25,26)           103.2107         estimate D2E/DX2                !
 ! A59   A(25,26,27)           114.3228         estimate D2E/DX2                !
 ! A60   A(25,26,34)           105.9586         estimate D2E/DX2                !
 ! A61   A(25,26,35)           112.3216         estimate D2E/DX2                !
 ! A62   A(27,26,34)           107.4965         estimate D2E/DX2                !
 ! A63   A(27,26,35)           108.3665         estimate D2E/DX2                !
 ! A64   A(34,26,35)           108.0798         estimate D2E/DX2                !
 ! A65   A(26,27,36)           112.9917         estimate D2E/DX2                !
 ! A66   A(26,27,37)           110.7252         estimate D2E/DX2                !
 ! A67   A(26,27,38)           112.5668         estimate D2E/DX2                !
 ! A68   A(36,27,37)           106.8315         estimate D2E/DX2                !
 ! A69   A(36,27,38)           106.6876         estimate D2E/DX2                !
 ! A70   A(37,27,38)           106.6454         estimate D2E/DX2                !
 ! D1    D(9,1,2,3)            179.747          estimate D2E/DX2                !
 ! D2    D(9,1,2,4)             -0.1476         estimate D2E/DX2                !
 ! D3    D(11,1,2,3)            -0.1808         estimate D2E/DX2                !
 ! D4    D(11,1,2,4)           179.9247         estimate D2E/DX2                !
 ! D5    D(2,1,9,7)             -0.5943         estimate D2E/DX2                !
 ! D6    D(2,1,9,10)           179.1079         estimate D2E/DX2                !
 ! D7    D(11,1,9,7)           179.3342         estimate D2E/DX2                !
 ! D8    D(11,1,9,10)           -0.9635         estimate D2E/DX2                !
 ! D9    D(2,1,11,12)          -64.6094         estimate D2E/DX2                !
 ! D10   D(2,1,11,13)           65.3831         estimate D2E/DX2                !
 ! D11   D(2,1,11,14)         -179.668          estimate D2E/DX2                !
 ! D12   D(9,1,11,12)          115.4639         estimate D2E/DX2                !
 ! D13   D(9,1,11,13)         -114.5437         estimate D2E/DX2                !
 ! D14   D(9,1,11,14)            0.4052         estimate D2E/DX2                !
 ! D15   D(1,2,4,5)           -179.6491         estimate D2E/DX2                !
 ! D16   D(1,2,4,6)              0.6509         estimate D2E/DX2                !
 ! D17   D(3,2,4,5)              0.4532         estimate D2E/DX2                !
 ! D18   D(3,2,4,6)           -179.2468         estimate D2E/DX2                !
 ! D19   D(2,4,6,7)             -0.3968         estimate D2E/DX2                !
 ! D20   D(2,4,6,17)          -177.9662         estimate D2E/DX2                !
 ! D21   D(5,4,6,7)            179.8993         estimate D2E/DX2                !
 ! D22   D(5,4,6,17)             2.3299         estimate D2E/DX2                !
 ! D23   D(4,6,7,8)            179.1465         estimate D2E/DX2                !
 ! D24   D(4,6,7,9)             -0.3526         estimate D2E/DX2                !
 ! D25   D(17,6,7,8)            -3.3237         estimate D2E/DX2                !
 ! D26   D(17,6,7,9)           177.1773         estimate D2E/DX2                !
 ! D27   D(4,6,17,18)         -166.2426         estimate D2E/DX2                !
 ! D28   D(4,6,17,22)          -12.1582         estimate D2E/DX2                !
 ! D29   D(7,6,17,18)           16.3056         estimate D2E/DX2                !
 ! D30   D(7,6,17,22)          170.39           estimate D2E/DX2                !
 ! D31   D(6,7,8,19)            21.3032         estimate D2E/DX2                !
 ! D32   D(6,7,8,20)           135.0505         estimate D2E/DX2                !
 ! D33   D(6,7,8,21)           -96.1137         estimate D2E/DX2                !
 ! D34   D(9,7,8,19)          -159.1751         estimate D2E/DX2                !
 ! D35   D(9,7,8,20)           -45.4278         estimate D2E/DX2                !
 ! D36   D(9,7,8,21)            83.408          estimate D2E/DX2                !
 ! D37   D(6,7,9,1)              0.8562         estimate D2E/DX2                !
 ! D38   D(6,7,9,10)          -178.8501         estimate D2E/DX2                !
 ! D39   D(8,7,9,1)           -178.6563         estimate D2E/DX2                !
 ! D40   D(8,7,9,10)             1.6375         estimate D2E/DX2                !
 ! D41   D(7,8,19,18)          -53.2428         estimate D2E/DX2                !
 ! D42   D(7,8,19,23)         -178.8154         estimate D2E/DX2                !
 ! D43   D(20,8,19,18)        -168.2396         estimate D2E/DX2                !
 ! D44   D(20,8,19,23)          66.1878         estimate D2E/DX2                !
 ! D45   D(21,8,19,18)          63.1092         estimate D2E/DX2                !
 ! D46   D(21,8,19,23)         -62.4634         estimate D2E/DX2                !
 ! D47   D(1,11,14,15)          66.4984         estimate D2E/DX2                !
 ! D48   D(1,11,14,16)         -65.8438         estimate D2E/DX2                !
 ! D49   D(12,11,14,15)        -49.5208         estimate D2E/DX2                !
 ! D50   D(12,11,14,16)        178.1369         estimate D2E/DX2                !
 ! D51   D(13,11,14,15)       -177.6278         estimate D2E/DX2                !
 ! D52   D(13,11,14,16)         50.0299         estimate D2E/DX2                !
 ! D53   D(6,17,18,19)         -50.2432         estimate D2E/DX2                !
 ! D54   D(6,17,18,24)        -170.2668         estimate D2E/DX2                !
 ! D55   D(6,17,18,28)          68.9797         estimate D2E/DX2                !
 ! D56   D(22,17,18,19)        155.4578         estimate D2E/DX2                !
 ! D57   D(22,17,18,24)         35.4342         estimate D2E/DX2                !
 ! D58   D(22,17,18,28)        -85.3193         estimate D2E/DX2                !
 ! D59   D(17,18,19,8)          69.9143         estimate D2E/DX2                !
 ! D60   D(17,18,19,23)       -167.153          estimate D2E/DX2                !
 ! D61   D(24,18,19,8)        -170.0995         estimate D2E/DX2                !
 ! D62   D(24,18,19,23)        -47.1668         estimate D2E/DX2                !
 ! D63   D(28,18,19,8)         -50.6172         estimate D2E/DX2                !
 ! D64   D(28,18,19,23)         72.3155         estimate D2E/DX2                !
 ! D65   D(17,18,24,25)        -53.0175         estimate D2E/DX2                !
 ! D66   D(17,18,24,32)       -176.3834         estimate D2E/DX2                !
 ! D67   D(17,18,24,33)         63.8809         estimate D2E/DX2                !
 ! D68   D(19,18,24,25)       -171.9622         estimate D2E/DX2                !
 ! D69   D(19,18,24,32)         64.6719         estimate D2E/DX2                !
 ! D70   D(19,18,24,33)        -55.0639         estimate D2E/DX2                !
 ! D71   D(28,18,24,25)         68.7727         estimate D2E/DX2                !
 ! D72   D(28,18,24,32)        -54.5932         estimate D2E/DX2                !
 ! D73   D(28,18,24,33)       -174.329          estimate D2E/DX2                !
 ! D74   D(8,19,23,29)        -160.4869         estimate D2E/DX2                !
 ! D75   D(8,19,23,30)          77.9302         estimate D2E/DX2                !
 ! D76   D(8,19,23,31)         -43.4465         estimate D2E/DX2                !
 ! D77   D(18,19,23,29)         76.1323         estimate D2E/DX2                !
 ! D78   D(18,19,23,30)        -45.4507         estimate D2E/DX2                !
 ! D79   D(18,19,23,31)       -166.8274         estimate D2E/DX2                !
 ! D80   D(18,24,25,26)        -57.7743         estimate D2E/DX2                !
 ! D81   D(32,24,25,26)         66.0944         estimate D2E/DX2                !
 ! D82   D(33,24,25,26)       -177.7072         estimate D2E/DX2                !
 ! D83   D(24,25,26,27)        -71.2419         estimate D2E/DX2                !
 ! D84   D(24,25,26,34)        170.5672         estimate D2E/DX2                !
 ! D85   D(24,25,26,35)         52.7706         estimate D2E/DX2                !
 ! D86   D(25,26,27,36)        -56.48           estimate D2E/DX2                !
 ! D87   D(25,26,27,37)       -176.2721         estimate D2E/DX2                !
 ! D88   D(25,26,27,38)         64.4592         estimate D2E/DX2                !
 ! D89   D(34,26,27,36)         60.8325         estimate D2E/DX2                !
 ! D90   D(34,26,27,37)        -58.9596         estimate D2E/DX2                !
 ! D91   D(34,26,27,38)       -178.2283         estimate D2E/DX2                !
 ! D92   D(35,26,27,36)        177.4171         estimate D2E/DX2                !
 ! D93   D(35,26,27,37)         57.625          estimate D2E/DX2                !
 ! D94   D(35,26,27,38)        -61.6437         estimate D2E/DX2                !
 --------------------------------------------------------------------------------
 Trust Radius=3.00D-01 FncErr=1.00D-07 GrdErr=1.00D-06 EigMax=2.50D+02 EigMin=1.00D-04
 Number of steps in this run=    213 maximum allowed number of steps=    228.
 GradGradGradGradGradGradGradGradGradGradGradGradGradGradGradGradGradGrad

                          Input orientation:                          
 ---------------------------------------------------------------------
 Center     Atomic      Atomic             Coordinates (Angstroms)
 Number     Number       Type             X           Y           Z
 ---------------------------------------------------------------------
      1          6           0       -1.310719    0.728525   -0.750013
      2          6           0       -2.406591    0.546590   -1.619529
      3         17           0       -4.035254    0.581729   -1.017040
      4          6           0       -2.226791    0.333929   -2.967246
      5          1           0       -3.082663    0.201582   -3.622182
      6          6           0       -0.926450    0.278668   -3.515636
      7          6           0        0.153790    0.457033   -2.634234
      8         16           0        1.808674    0.380996   -3.229324
      9          6           0       -0.030417    0.687154   -1.275199
     10          1           0        0.836354    0.837539   -0.637589
     11         16           0       -1.552830    1.005729    0.995989
     12          8           0       -2.249254    2.280863    1.161600
     13          8           0       -2.142782   -0.203841    1.568286
     14          7           0       -0.082185    1.181524    1.689662
     15          1           0        0.422324    2.020163    1.399107
     16          1           0        0.498012    0.341773    1.667316
     17          7           0       -0.747189    0.110076   -4.850661
     18          6           0        0.540941   -0.241902   -5.413427
     19          7           0        1.557871    0.694283   -4.865410
     20          8           0        2.588596    1.484836   -2.667977
     21          8           0        2.354891   -0.967083   -3.019968
     22          1           0       -1.562406   -0.161281   -5.395070
     23          6           0        2.858284    0.647503   -5.576290
     24          6           0        0.492159   -0.125223   -6.934343
     25         16           0       -0.874682   -1.053014   -7.704695
     26          6           0       -0.584526   -2.754838   -7.150359
     27          6           0        0.609520   -3.419881   -7.786213
     28          1           0        0.821494   -1.271419   -5.138643
     29          1           0        2.750468    1.177046   -6.521910
     30          1           0        3.188894   -0.381567   -5.755774
     31          1           0        3.604847    1.174522   -4.980666
     32          1           0        1.436601   -0.449345   -7.367553
     33          1           0        0.313660    0.916262   -7.221666
     34          1           0       -1.472084   -3.322225   -7.444162
     35          1           0       -0.480620   -2.825773   -6.064434
     36          9           0        0.549164   -3.434521   -9.128837
     37          9           0        0.710079   -4.702402   -7.386237
     38          9           0        1.771873   -2.820412   -7.457349
 ---------------------------------------------------------------------
                    Distance matrix (angstroms):
                    1          2          3          4          5
     1  C    0.000000
     2  C    1.410707   0.000000
     3  Cl   2.741522   1.736884   0.000000
     4  C    2.431259   1.376189   2.671188   0.000000
     5  H    3.415671   2.141663   2.799768   1.085804   0.000000
     6  C    2.828198   2.420294   3.999936   1.412329   2.160220
     7  C    2.401830   2.755577   4.492099   2.406911   3.393512
     8  S    3.999797   4.515233   6.251879   4.044241   4.910367
     9  C    1.384451   2.405104   4.014533   2.794969   3.880761
    10  H    2.152776   3.400816   4.893055   3.881209   4.966984
    11  S    1.784372   2.789381   3.224049   4.075877   4.930977
    12  O    2.635311   3.281331   3.289883   4.564913   5.282286
    13  O    2.633656   3.285560   3.298861   4.568075   5.290435
    14  N    2.768847   4.093501   4.828327   5.196590   6.178902
    15  H    3.048030   4.391622   5.270376   5.378312   6.387919
    16  H    3.043775   4.391130   5.273884   5.376224   6.389028
    17  N    4.185136   3.658467   5.072522   2.405532   2.640450
    18  C    5.110558   4.868606   6.399073   3.738411   4.066416
    19  N    5.016620   5.125868   6.790115   4.249300   4.829381
    20  O    4.410811   5.189552   6.885970   4.960051   5.892404
    21  O    4.632977   5.188849   6.873463   4.763111   5.594232
    22  H    4.736207   3.932994   5.082734   2.565340   2.363468
    23  C    6.378096   6.586733   8.265104   5.723935   6.269947
    24  C    6.498092   6.091087   7.484098   4.831291   4.884318
    25  S    7.192469   6.475703   7.575376   5.118127   4.807921
    26  C    7.322950   6.693985   7.788311   5.453068   5.237284
    27  C    8.390751   7.928293   9.132826   6.734849   6.639757
    28  H    5.273156   5.109780   6.633985   4.072364   4.439800
    29  H    7.071719   7.143254   8.758082   6.174106   6.586757
    30  H    6.821764   7.019933   8.693207   6.133309   6.650166
    31  H    6.500779   6.915846   8.627448   6.226432   6.893103
    32  H    7.261335   6.985829   8.445906   5.778985   5.905528
    33  H    6.675039   6.238619   7.584348   4.989297   5.000206
    34  H    7.825998   7.054601   7.944721   5.829221   5.442308
    35  H    6.447106   5.902490   7.051431   4.756617   4.679755
    36  F    9.539120   8.998636  10.146349   7.737722   7.532242
    37  F    8.810112   8.397648   9.539753   7.315553   7.252728
    38  F    8.190585   7.929465   9.315303   6.789714   6.885309
                    6          7          8          9         10
     6  C    0.000000
     7  C    1.405561   0.000000
     8  S    2.751972   1.760271   0.000000
     9  C    2.447303   1.390634   2.700851   0.000000
    10  H    3.420960   2.144124   2.805517   1.086488   0.000000
    11  S    4.612562   4.048721   5.435372   2.752731   2.899149
    12  O    5.256913   4.848642   6.273475   3.660756   3.852433
    13  O    5.249623   4.834478   6.242844   3.652583   3.850404
    14  N    5.350052   4.390518   5.330348   3.006240   2.525497
    15  H    5.385786   4.333973   5.102079   3.022218   2.391266
    16  H    5.375506   4.316840   5.069168   3.009472   2.381774
    17  N    1.357516   2.417580   3.038843   3.691979   4.559253
    18  C    2.454758   2.891766   2.601049   4.279547   4.905210
    19  N    2.857704   2.646862   1.684586   3.925853   4.291338
    20  O    3.811681   2.643066   1.463507   3.071703   2.758953
    21  O    3.544684   2.649857   1.469524   3.386800   3.352363
    22  H    2.032306   3.309057   4.043352   4.476624   5.420822
    23  C    4.325106   4.000782   2.584755   5.181269   5.339951
    24  C    3.723324   4.352523   3.964421   5.740989   6.379223
    25  S    4.395938   5.389580   5.411629   6.714118   7.513043
    26  C    4.746608   5.590761   5.561958   6.831680   7.572334
    27  C    5.854597   6.463826   6.053914   7.724672   8.323455
    28  H    2.844684   3.115355   2.711180   4.414516   4.970654
    29  H    4.833683   4.730241   3.515934   5.958296   6.197123
    30  H    4.731827   4.433860   2.978164   5.619758   5.763374
    31  H    4.845773   4.234421   2.631182   5.213747   5.161436
    32  H    4.577257   4.987127   4.237080   6.368717   6.878138
    33  H    3.959679   4.613131   4.296553   5.960817   6.605261
    34  H    5.357002   6.329429   6.499391   7.497308   8.304334
    35  H    4.041373   4.790153   4.854080   5.956518   6.678692
    36  F    6.890083   7.581582   7.137842   8.888405   9.509693
    37  F    6.516966   7.036389   6.657911   8.181713   8.732190
    38  F    5.694063   6.051634   5.303448   7.332820   7.795186
                   11         12         13         14         15
    11  S    0.000000
    12  O    1.462327   0.000000
    13  O    1.462404   2.520016   0.000000
    14  N    1.635507   2.486681   2.485966   0.000000
    15  H    2.256727   2.694755   3.399204   1.020915   0.000000
    16  H    2.257758   3.400483   2.698387   1.020935   1.701370
    17  N    5.969470   6.566262   6.576406   6.660785   6.638960
    18  C    6.857191   7.574992   7.479848   7.271058   7.179250
    19  N    6.643001   7.303170   7.476223   6.774670   6.503199
    20  O    5.550280   6.221263   6.571415   5.119969   4.639017
    21  O    5.940554   7.016610   6.470214   5.721578   5.673330
    22  H    6.496740   7.030345   6.987630   7.361223   7.406665
    23  C    7.923453   8.611270   8.762444   7.856564   7.514936
    24  C    8.267478   8.879690   8.901899   8.741334   8.605460
    25  S    8.966616   9.571592   9.397731   9.688919   9.695661
    26  C    9.024548   9.859932   9.216861   9.689853   9.844174
    27  C   10.069203  10.987922  10.267655  10.556684  10.677042
    28  H    6.961072   7.857561   7.410098   7.311587   7.330486
    29  H    8.664094   9.233199   9.555209   8.686418   8.299012
    30  H    8.366292   9.193044   9.060917   8.281167   8.038317
    31  H    7.896235   8.556980   8.821785   7.621517   7.179489
    32  H    9.000154   9.684319   9.629200   9.327357   9.164146
    33  H    8.427434   8.871855   9.195216   8.924058   8.691843
    34  H    9.485455  10.298434   9.560250  10.278245  10.503966
    35  H    8.104296   9.023379   8.239887   8.737458   8.944431
    36  F   11.253724  12.099168  11.494012  11.779066  11.857794
    37  F   10.390632  11.427562  10.419182  10.845285  11.066072
    38  F    9.856568  10.792532  10.180033  10.154843  10.182793
                   16         17         18         19         20
    16  H    0.000000
    17  N    6.639897   0.000000
    18  C    7.104888   1.449093   0.000000
    19  N    6.627524   2.377985   1.486914   0.000000
    20  O    4.946909   4.216816   3.835624   2.552662   0.000000
    21  O    5.208813   3.759603   3.089490   2.607880   2.488056
    22  H    7.373987   1.017150   2.104971   3.278514   5.232356
    23  C    7.624578   3.716826   2.487498   1.482772   3.038444
    24  C    8.614329   2.435791   1.526165   2.467350   5.018886
    25  S    9.574148   3.084565   2.812792   4.126972   6.618422
    26  C    9.408097   3.677337   3.255527   4.659109   6.937960
    27  C   10.175052   4.787350   3.966657   5.133888   7.359982
    28  H    7.002007   2.110030   1.101871   2.116811   4.101680
    29  H    8.534323   4.020584   2.850292   2.097460   3.869591
    30  H    7.928830   4.068623   2.673643   2.147193   3.657637
    31  H    7.385226   4.482205   3.403096   2.105712   2.545111
    32  H    9.117877   3.378851   2.159595   2.753782   5.210966
    33  H    8.909435   2.719742   2.159335   2.673813   5.121981
    34  H   10.016247   4.362616   4.202921   5.653577   7.899931
    35  H    8.412552   3.188027   2.853732   4.240743   6.287874
    36  F   11.437655   5.705041   4.898689   6.020077   8.372698
    37  F   10.366075   5.631405   4.880230   6.016438   8.004544
    38  F    9.740722   4.661358   3.513051   4.372302   6.491555
                   21         22         23         24         25
    21  O    0.000000
    22  H    4.651413   0.000000
    23  C    3.065139   4.497718   0.000000
    24  C    4.415975   2.567470   2.835482   0.000000
    25  S    5.690711   2.569537   4.621352   1.822771   0.000000
    26  C    5.375535   3.280827   5.089849   2.849700   1.813197
    27  C    5.637343   4.588388   5.146290   3.405030   2.794916
    28  H    2.633005   2.642184   2.832368   2.155636   3.083721
    29  H    4.125212   4.654220   1.089145   2.639311   4.417450
    30  H    2.919423   4.770061   1.095674   2.954169   4.556510
    31  H    3.161202   5.353186   1.090814   3.898079   5.696352
    32  H    4.473568   3.601071   2.536313   1.088438   2.412490
    33  H    5.036654   2.831461   3.042138   1.095037   2.350217
    34  H    6.306024   3.768090   6.164396   3.786687   2.360950
    35  H    4.556713   2.952597   4.842542   2.999336   2.447124
    36  F    6.831339   5.395725   5.883498   3.971210   3.118829
    37  F    5.976816   5.454421   6.042531   4.604592   3.991355
    38  F    4.844078   4.737234   4.092078   3.029067   3.192041
                   26         27         28         29         30
    26  C    0.000000
    27  C    1.507428   0.000000
    28  H    2.867826   3.416204   0.000000
    29  H    5.193924   5.226266   3.410183   0.000000
    30  H    4.670759   4.472941   2.603319   1.791216   0.000000
    31  H    6.139893   6.160488   3.708724   1.762216   1.787518
    32  H    3.073667   3.111819   2.454018   2.255329   2.381797
    33  H    3.780052   4.382736   3.063140   2.548666   3.478530
    34  H    1.093621   2.111780   3.844701   6.238906   5.763926
    35  H    1.093189   2.122709   2.229038   5.164473   4.419814
    36  F    2.379411   1.344060   4.546958   5.736581   5.259873
    37  F    2.350457   1.347202   4.103138   6.283165   5.241427
    38  F    2.377217   1.348547   2.946014   4.220470   3.294127
                   31         32         33         34         35
    31  H    0.000000
    32  H    3.610467   0.000000
    33  H    3.990074   1.774025   0.000000
    34  H    7.215593   4.088980   4.604689   0.000000
    35  H    5.819618   3.319829   3.996610   1.770061   0.000000
    36  F    6.912872   3.577840   4.756267   2.633664   3.289619
    37  F    6.978875   4.314704   5.635034   2.582650   2.585858
    38  F    5.045122   2.396336   4.018042   3.282568   2.648390
                   36         37         38
    36  F    0.000000
    37  F    2.161034   0.000000
    38  F    2.160097   2.162025   0.000000
 Stoichiometry    C11H13ClF3N3O4S3
 Framework group  C1[X(C11H13ClF3N3O4S3)]
 Deg. of freedom   108
 Full point group                 C1      NOp   1
 Largest Abelian subgroup         C1      NOp   1
 Largest concise Abelian subgroup C1      NOp   1
                         Standard orientation:                         
 ---------------------------------------------------------------------
 Center     Atomic      Atomic             Coordinates (Angstroms)
 Number     Number       Type             X           Y           Z
 ---------------------------------------------------------------------
      1          6           0       -3.193043   -0.238704    0.085832
      2          6           0       -2.654071   -1.464455   -0.358170
      3         17           0       -3.648477   -2.883949   -0.472023
      4          6           0       -1.329445   -1.580370   -0.712888
      5          1           0       -0.933555   -2.530769   -1.057827
      6          6           0       -0.465643   -0.466301   -0.627043
      7          6           0       -1.018137    0.745633   -0.178079
      8         16           0       -0.008019    2.178500   -0.019625
      9          6           0       -2.360466    0.864570    0.165244
     10          1           0       -2.744639    1.827860    0.489186
     11         16           0       -4.912270   -0.096629    0.541962
     12          8           0       -5.720858   -0.335252   -0.652879
     13          8           0       -5.135764   -0.924902    1.726293
     14          7           0       -5.190097    1.450283    0.994465
     15          1           0       -5.103321    2.131497    0.239028
     16          1           0       -4.701289    1.735669    1.844129
     17          7           0        0.831299   -0.567242   -1.015120
     18          6           0        1.814036    0.442745   -0.677444
     19          7           0        1.260553    1.771411   -1.050562
     20          8           0       -0.700179    3.337915   -0.584006
     21          8           0        0.453328    2.315158    1.368893
     22          1           0        1.191484   -1.503741   -1.181945
     23          6           0        2.265546    2.861607   -1.041986
     24          6           0        3.108267    0.184236   -1.443812
     25         16           0        3.760194   -1.506557   -1.247082
     26          6           0        3.975559   -1.661536    0.546596
     27          6           0        5.112964   -0.847021    1.108036
     28          1           0        2.026888    0.437673    0.403661
     29          1           0        2.880316    2.767197   -1.936067
     30          1           0        2.895371    2.829510   -0.145998
     31          1           0        1.746700    3.819816   -1.092081
     32          1           0        3.871470    0.901289   -1.147074
     33          1           0        2.930104    0.286682   -2.519390
     34          1           0        4.202624   -2.715091    0.732257
     35          1           0        3.065852   -1.408369    1.097414
     36          9           0        6.294157   -1.127248    0.531188
     37          9           0        5.258686   -1.077562    2.427342
     38          9           0        4.918239    0.479914    0.966961
 ---------------------------------------------------------------------
 Rotational constants (GHZ):           0.3096526           0.0791199           0.0706073
 General basis read from cards:  (6D, 7F)
 There are   517 symmetry adapted cartesian basis functions of A   symmetry.
 There are   517 symmetry adapted basis functions of A   symmetry.
   517 basis functions,   948 primitive gaussians,   517 cartesian basis functions
   112 alpha electrons      112 beta electrons
       nuclear repulsion energy      3150.2950383714 Hartrees.
 NAtoms=   38 NActive=   38 NUniq=   38 SFac= 1.00D+00 NAtFMM=   60 NAOKFM=F Big=F
 Integral buffers will be    131072 words long.
 Raffenetti 2 integral format.
 Two-electron integral symmetry is turned on.
 One-electron integrals computed using PRISM.
 NBasis=   517 RedAO= T EigKep=  1.73D-06  NBF=   517
 NBsUse=   514 1.00D-06 EigRej=  8.36D-07 NBFU=   514
 ExpMin= 4.05D-02 ExpMax= 2.52D+04 ExpMxC= 3.78D+03 IAcc=3 IRadAn=         5 AccDes= 0.00D+00
 Harris functional with IExCor= 1009 and IRadAn=       5 diagonalized for initial guess.
 HarFok:  IExCor= 1009 AccDes= 0.00D+00 IRadAn=         5 IDoV= 1 UseB2=F ITyADJ=14
 ICtDFT=  3500011 ScaDFX=  1.000000  1.000000  1.000000  1.000000
 FoFCou: FMM=F IPFlag=           0 FMFlag=      100000 FMFlg1=           0
         NFxFlg=           0 DoJE=T BraDBF=F KetDBF=T FulRan=T
         wScrn=  0.000000 ICntrl=       500 IOpCl=  0 I1Cent=   200000004 NGrid=           0
         NMat0=    1 NMatS0=      1 NMatT0=    0 NMatD0=    1 NMtDS0=    0 NMtDT0=    0
 Petite list used in FoFCou.
 Requested convergence on RMS density matrix=1.00D-08 within 128 cycles.
 Requested convergence on MAX density matrix=1.00D-06.
 Requested convergence on             energy=1.00D-06.
 No special actions if energy rises.
 SCF Done:  E(RM062X) =  -2845.75418313     A.U. after   17 cycles
            NFock= 17  Conv=0.27D-08     -V/T= 2.0052

 **********************************************************************

            Population analysis using the SCF Density.

 **********************************************************************

 Orbital symmetries:
       Occupied  (A) (A) (A) (A) (A) (A) (A) (A) (A) (A) (A) (A)
                 (A) (A) (A) (A) (A) (A) (A) (A) (A) (A) (A) (A)
                 (A) (A) (A) (A) (A) (A) (A) (A) (A) (A) (A) (A)
                 (A) (A) (A) (A) (A) (A) (A) (A) (A) (A) (A) (A)
                 (A) (A) (A) (A) (A) (A) (A) (A) (A) (A) (A) (A)
                 (A) (A) (A) (A) (A) (A) (A) (A) (A) (A) (A) (A)
                 (A) (A) (A) (A) (A) (A) (A) (A) (A) (A) (A) (A)
                 (A) (A) (A) (A) (A) (A) (A) (A) (A) (A) (A) (A)
                 (A) (A) (A) (A) (A) (A) (A) (A) (A) (A) (A) (A)
                 (A) (A) (A) (A)
       Virtual   (A) (A) (A) (A) (A) (A) (A) (A) (A) (A) (A) (A)
                 (A) (A) (A) (A) (A) (A) (A) (A) (A) (A) (A) (A)
                 (A) (A) (A) (A) (A) (A) (A) (A) (A) (A) (A) (A)
                 (A) (A) (A) (A) (A) (A) (A) (A) (A) (A) (A) (A)
                 (A) (A) (A) (A) (A) (A) (A) (A) (A) (A) (A) (A)
                 (A) (A) (A) (A) (A) (A) (A) (A) (A) (A) (A) (A)
                 (A) (A) (A) (A) (A) (A) (A) (A) (A) (A) (A) (A)
                 (A) (A) (A) (A) (A) (A) (A) (A) (A) (A) (A) (A)
                 (A) (A) (A) (A) (A) (A) (A) (A) (A) (A) (A) (A)
                 (A) (A) (A) (A) (A) (A) (A) (A) (A) (A) (A) (A)
                 (A) (A) (A) (A) (A) (A) (A) (A) (A) (A) (A) (A)
                 (A) (A) (A) (A) (A) (A) (A) (A) (A) (A) (A) (A)
                 (A) (A) (A) (A) (A) (A) (A) (A) (A) (A) (A) (A)
                 (A) (A) (A) (A) (A) (A) (A) (A) (A) (A) (A) (A)
                 (A) (A) (A) (A) (A) (A) (A) (A) (A) (A) (A) (A)
                 (A) (A) (A) (A) (A) (A) (A) (A) (A) (A) (A) (A)
                 (A) (A) (A) (A) (A) (A) (A) (A) (A) (A) (A) (A)
                 (A) (A) (A) (A) (A) (A) (A) (A) (A) (A) (A) (A)
                 (A) (A) (A) (A) (A) (A) (A) (A) (A) (A) (A) (A)
                 (A) (A) (A) (A) (A) (A) (A) (A) (A) (A) (A) (A)
                 (A) (A) (A) (A) (A) (A) (A) (A) (A) (A) (A) (A)
                 (A) (A) (A) (A) (A) (A) (A) (A) (A) (A) (A) (A)
                 (A) (A) (A) (A) (A) (A) (A) (A) (A) (A) (A) (A)
                 (A) (A) (A) (A) (A) (A) (A) (A) (A) (A) (A) (A)
                 (A) (A) (A) (A) (A) (A) (A) (A) (A) (A) (A) (A)
                 (A) (A) (A) (A) (A) (A) (A) (A) (A) (A) (A) (A)
                 (A) (A) (A) (A) (A) (A) (A) (A) (A) (A) (A) (A)
                 (A) (A) (A) (A) (A) (A) (A) (A) (A) (A) (A) (A)
                 (A) (A) (A) (A) (A) (A) (A) (A) (A) (A) (A) (A)
                 (A) (A) (A) (A) (A) (A) (A) (A) (A) (A) (A) (A)
                 (A) (A) (A) (A) (A) (A) (A) (A) (A) (A) (A) (A)
                 (A) (A) (A) (A) (A) (A) (A) (A) (A) (A) (A) (A)
                 (A) (A) (A) (A) (A) (A) (A) (A) (A) (A) (A) (A)
                 (A) (A) (A) (A) (A) (A)
 The electronic state is 1-A.
 Alpha  occ. eigenvalues -- -102.69527 -90.18532 -90.17984 -89.98066 -25.33182
 Alpha  occ. eigenvalues --  -25.32636 -25.32556 -19.66305 -19.66177 -19.64543
 Alpha  occ. eigenvalues --  -19.64538 -14.83854 -14.83597 -14.82199 -10.84170
 Alpha  occ. eigenvalues --  -10.68468 -10.66877 -10.66690 -10.64499 -10.63382
 Alpha  occ. eigenvalues --  -10.62599 -10.62462 -10.62324 -10.61575 -10.60784
 Alpha  occ. eigenvalues --   -9.84149  -8.49648  -8.48853  -8.32498  -7.56577
 Alpha  occ. eigenvalues --   -7.55873  -7.55839  -6.41847  -6.41767  -6.41724
 Alpha  occ. eigenvalues --   -6.41099  -6.40988  -6.40954  -6.24584  -6.24313
 Alpha  occ. eigenvalues --   -6.23877  -1.49407  -1.40211  -1.39842  -1.26317
 Alpha  occ. eigenvalues --   -1.24928  -1.14276  -1.13758  -1.12779  -1.07274
 Alpha  occ. eigenvalues --   -1.04906  -1.03554  -0.98743  -0.97429  -0.93166
 Alpha  occ. eigenvalues --   -0.90201  -0.89509  -0.84909  -0.83524  -0.80175
 Alpha  occ. eigenvalues --   -0.78328  -0.76087  -0.75153  -0.73665  -0.72130
 Alpha  occ. eigenvalues --   -0.71669  -0.68769  -0.67871  -0.67135  -0.65774
 Alpha  occ. eigenvalues --   -0.64613  -0.63760  -0.62215  -0.60176  -0.59908
 Alpha  occ. eigenvalues --   -0.59816  -0.58500  -0.58050  -0.57247  -0.57055
 Alpha  occ. eigenvalues --   -0.56259  -0.56150  -0.55527  -0.54622  -0.54114
 Alpha  occ. eigenvalues --   -0.53736  -0.53334  -0.53172  -0.52795  -0.51722
 Alpha  occ. eigenvalues --   -0.50990  -0.50978  -0.49682  -0.48484  -0.48080
 Alpha  occ. eigenvalues --   -0.45804  -0.44108  -0.42941  -0.42801  -0.42606
 Alpha  occ. eigenvalues --   -0.41525  -0.40869  -0.40414  -0.40288  -0.39976
 Alpha  occ. eigenvalues --   -0.39462  -0.37926  -0.37792  -0.36140  -0.34530
 Alpha  occ. eigenvalues --   -0.34169  -0.30715
 Alpha virt. eigenvalues --   -0.04289  -0.02967  -0.01720  -0.00702  -0.00422
 Alpha virt. eigenvalues --    0.00128   0.01132   0.02044   0.02468   0.02687
 Alpha virt. eigenvalues --    0.03067   0.03258   0.03637   0.04150   0.04806
 Alpha virt. eigenvalues --    0.04996   0.05065   0.05567   0.05974   0.06275
 Alpha virt. eigenvalues --    0.06466   0.06871   0.07369   0.07743   0.07825
 Alpha virt. eigenvalues --    0.08095   0.08207   0.08766   0.09027   0.09134
 Alpha virt. eigenvalues --    0.09630   0.09781   0.10438   0.10660   0.11003
 Alpha virt. eigenvalues --    0.11127   0.11187   0.11709   0.11815   0.12262
 Alpha virt. eigenvalues --    0.12649   0.12878   0.12972   0.13641   0.13987
 Alpha virt. eigenvalues --    0.14266   0.14713   0.14853   0.15305   0.15646
 Alpha virt. eigenvalues --    0.15766   0.15954   0.16091   0.16503   0.17108
 Alpha virt. eigenvalues --    0.17230   0.17670   0.18418   0.18443   0.19198
 Alpha virt. eigenvalues --    0.19330   0.19659   0.19823   0.20048   0.20445
 Alpha virt. eigenvalues --    0.20919   0.21134   0.21237   0.21608   0.22226
 Alpha virt. eigenvalues --    0.22537   0.22856   0.22943   0.23501   0.23710
 Alpha virt. eigenvalues --    0.24514   0.24549   0.24644   0.24875   0.25123
 Alpha virt. eigenvalues --    0.25653   0.26302   0.26547   0.26779   0.27157
 Alpha virt. eigenvalues --    0.27387   0.27707   0.28750   0.28763   0.29207
 Alpha virt. eigenvalues --    0.29277   0.29659   0.29861   0.30168   0.30542
 Alpha virt. eigenvalues --    0.30765   0.30982   0.31522   0.32041   0.32135
 Alpha virt. eigenvalues --    0.32431   0.32882   0.33555   0.34072   0.34203
 Alpha virt. eigenvalues --    0.34633   0.35006   0.35348   0.35434   0.35725
 Alpha virt. eigenvalues --    0.36238   0.36409   0.36690   0.36914   0.37082
 Alpha virt. eigenvalues --    0.38205   0.38320   0.38489   0.39212   0.39440
 Alpha virt. eigenvalues --    0.39825   0.40566   0.40772   0.41511   0.41742
 Alpha virt. eigenvalues --    0.42898   0.43533   0.44272   0.44582   0.45088
 Alpha virt. eigenvalues --    0.45810   0.46892   0.47816   0.48682   0.49696
 Alpha virt. eigenvalues --    0.51250   0.51654   0.53595   0.54223   0.55217
 Alpha virt. eigenvalues --    0.56045   0.57558   0.57874   0.59535   0.60973
 Alpha virt. eigenvalues --    0.61909   0.61966   0.64480   0.64824   0.65340
 Alpha virt. eigenvalues --    0.65868   0.66744   0.67119   0.68042   0.68360
 Alpha virt. eigenvalues --    0.68957   0.70188   0.70425   0.70889   0.71458
 Alpha virt. eigenvalues --    0.72667   0.73190   0.74034   0.75618   0.76031
 Alpha virt. eigenvalues --    0.76567   0.77133   0.77385   0.78502   0.79113
 Alpha virt. eigenvalues --    0.80507   0.81019   0.82936   0.84700   0.85009
 Alpha virt. eigenvalues --    0.86045   0.86930   0.87466   0.88617   0.89816
 Alpha virt. eigenvalues --    0.90374   0.91112   0.92609   0.93222   0.94538
 Alpha virt. eigenvalues --    0.94735   0.95516   0.97084   0.97408   0.98401
 Alpha virt. eigenvalues --    0.98864   0.99662   0.99970   1.00416   1.01526
 Alpha virt. eigenvalues --    1.02361   1.02864   1.03433   1.03597   1.04072
 Alpha virt. eigenvalues --    1.04460   1.05582   1.06378   1.07000   1.09045
 Alpha virt. eigenvalues --    1.09937   1.10386   1.10971   1.12151   1.12535
 Alpha virt. eigenvalues --    1.13138   1.13341   1.14482   1.14757   1.15425
 Alpha virt. eigenvalues --    1.16295   1.16756   1.18589   1.18785   1.19309
 Alpha virt. eigenvalues --    1.19746   1.20870   1.21804   1.22398   1.23563
 Alpha virt. eigenvalues --    1.24449   1.25204   1.26448   1.27458   1.28524
 Alpha virt. eigenvalues --    1.31745   1.32159   1.33622   1.33961   1.34750
 Alpha virt. eigenvalues --    1.35354   1.35971   1.36967   1.38695   1.39123
 Alpha virt. eigenvalues --    1.39786   1.41221   1.41543   1.43247   1.43603
 Alpha virt. eigenvalues --    1.44135   1.44370   1.46544   1.47515   1.48353
 Alpha virt. eigenvalues --    1.49543   1.49990   1.51303   1.52601   1.53517
 Alpha virt. eigenvalues --    1.53805   1.55665   1.56111   1.56848   1.59375
 Alpha virt. eigenvalues --    1.59714   1.61545   1.62479   1.63712   1.65104
 Alpha virt. eigenvalues --    1.65625   1.68241   1.68769   1.70163   1.70910
 Alpha virt. eigenvalues --    1.72030   1.72171   1.74010   1.74829   1.76086
 Alpha virt. eigenvalues --    1.76277   1.78285   1.79036   1.79314   1.79849
 Alpha virt. eigenvalues --    1.80850   1.82272   1.83110   1.83706   1.84445
 Alpha virt. eigenvalues --    1.84915   1.85885   1.86364   1.86456   1.87096
 Alpha virt. eigenvalues --    1.87579   1.87689   1.88034   1.88785   1.89131
 Alpha virt. eigenvalues --    1.90533   1.90930   1.92684   1.93324   1.94145
 Alpha virt. eigenvalues --    1.94441   1.95970   1.99010   1.99371   2.00163
 Alpha virt. eigenvalues --    2.00328   2.01591   2.01834   2.02822   2.03646
 Alpha virt. eigenvalues --    2.05294   2.06364   2.06961   2.08547   2.09876
 Alpha virt. eigenvalues --    2.10191   2.10551   2.12209   2.12440   2.13144
 Alpha virt. eigenvalues --    2.13273   2.14697   2.15064   2.15558   2.17487
 Alpha virt. eigenvalues --    2.17806   2.19833   2.20225   2.21369   2.22336
 Alpha virt. eigenvalues --    2.22741   2.23741   2.26440   2.27352   2.28443
 Alpha virt. eigenvalues --    2.29729   2.30538   2.33597   2.35335   2.36697
 Alpha virt. eigenvalues --    2.37064   2.38776   2.40441   2.42748   2.43678
 Alpha virt. eigenvalues --    2.46065   2.46651   2.48039   2.48447   2.49046
 Alpha virt. eigenvalues --    2.51888   2.53016   2.56409   2.59783   2.62694
 Alpha virt. eigenvalues --    2.65249   2.69544   2.73728   2.75759   2.76542
 Alpha virt. eigenvalues --    2.77860   2.78962   2.80005   2.81798   2.86159
 Alpha virt. eigenvalues --    2.86942   2.91069   2.93701   2.93749   2.97752
 Alpha virt. eigenvalues --    3.00649   3.03574   3.16194   3.18641   3.19149
 Alpha virt. eigenvalues --    3.22179   3.30770   3.95738   3.96968   4.04681
 Alpha virt. eigenvalues --    4.05676   4.13338   4.19008   4.25529   4.27208
 Alpha virt. eigenvalues --    4.28779   4.30424   4.31766   4.34064   4.36724
 Alpha virt. eigenvalues --    4.39080   4.42747   4.43317   4.49410   4.52527
 Alpha virt. eigenvalues --    4.54590   4.62537   4.64768   4.73244   5.72782
 Alpha virt. eigenvalues --    5.75091   6.54369
          Condensed to atoms (all electrons):
               1          2          3          4          5          6
     1  C   45.898858  -7.582280  -0.201885  -7.382242   0.073436   1.425758
     2  C   -7.582280  26.757923  -0.641388  -1.168568   0.084153  -5.744596
     3  Cl  -0.201885  -0.641388  16.995349   0.277283  -0.009400   0.348654
     4  C   -7.382242  -1.168568   0.277283  11.113915   0.297965  -0.139067
     5  H    0.073436   0.084153  -0.009400   0.297965   0.458288  -0.183789
     6  C    1.425758  -5.744596   0.348654  -0.139067  -0.183789  30.111014
     7  C   -7.489395  -1.870005  -0.192238   0.089717   0.045157 -13.284801
     8  S   -3.468507   1.277836  -0.041688   0.783317   0.004476  -2.410364
     9  C  -11.112671  -5.098225   0.012795   1.445961  -0.003430  -5.251935
    10  H   -0.135719  -0.068917  -0.000459  -0.001395   0.000012  -0.055404
    11  S   -1.375320  -0.094760   0.155439   0.743004  -0.001218   1.154226
    12  O    0.370330  -0.342974  -0.017234   0.019086   0.000000   0.033514
    13  O    0.413440  -0.336673  -0.011192   0.059567   0.000013   0.070582
    14  N    0.299444   0.419682  -0.043673  -0.137478   0.000118  -0.043817
    15  H   -0.035755  -0.005467   0.000729   0.003957  -0.000000   0.000087
    16  H   -0.089737  -0.025472   0.000853   0.003365  -0.000000  -0.005878
    17  N    0.180291   0.046632  -0.004506  -0.203441  -0.010910  -0.464394
    18  C   -0.273429  -0.304214  -0.005758   0.139712   0.002393  -0.654226
    19  N   -0.621523   0.328260  -0.004527   0.058790   0.000388   0.652631
    20  O   -0.258177   0.033006  -0.001159   0.035596   0.000010  -0.054508
    21  O   -0.036967   0.005249  -0.000354   0.045159   0.000026  -0.304525
    22  H    0.006933   0.024769   0.000272   0.047384   0.005170  -0.116688
    23  C   -0.051582   0.039273  -0.000345  -0.034849   0.000019   0.216464
    24  C   -0.507374   0.214201  -0.004967  -0.059499   0.000688   0.242040
    25  S    0.054132  -0.089832   0.003222   0.034683  -0.001437  -0.089564
    26  C   -0.019996   0.033107  -0.001001   0.032131   0.000086  -0.057373
    27  C   -0.004833   0.000408  -0.000101  -0.013524   0.000055   0.018107
    28  H    0.028120   0.000595   0.000012   0.020488  -0.000004  -0.103473
    29  H   -0.000703   0.000182  -0.000001  -0.001549   0.000000   0.010653
    30  H   -0.000318   0.000109   0.000000   0.003128  -0.000000  -0.000675
    31  H    0.001944  -0.000186   0.000001  -0.000093  -0.000000  -0.004451
    32  H    0.000155  -0.000542   0.000002   0.000267   0.000000  -0.008965
    33  H    0.000013   0.001402  -0.000005   0.002119  -0.000001   0.002320
    34  H    0.000041   0.000093   0.000001  -0.000030   0.000000   0.001277
    35  H   -0.000109  -0.000789  -0.000022  -0.003982  -0.000001  -0.001246
    36  F    0.000012  -0.000035   0.000000  -0.000081   0.000000  -0.000231
    37  F   -0.000041  -0.000006  -0.000000  -0.000347  -0.000000   0.001684
    38  F   -0.000033   0.000116  -0.000001  -0.000927  -0.000000   0.007969
               7          8          9         10         11         12
     1  C   -7.489395  -3.468507 -11.112671  -0.135719  -1.375320   0.370330
     2  C   -1.870005   1.277836  -5.098225  -0.068917  -0.094760  -0.342974
     3  Cl  -0.192238  -0.041688   0.012795  -0.000459   0.155439  -0.017234
     4  C    0.089717   0.783317   1.445961  -0.001395   0.743004   0.019086
     5  H    0.045157   0.004476  -0.003430   0.000012  -0.001218   0.000000
     6  C  -13.284801  -2.410364  -5.251935  -0.055404   1.154226   0.033514
     7  C   27.410466  -1.828843   7.814454   0.028907  -1.961028  -0.054194
     8  S   -1.828843  19.985127   0.490601   0.079280  -0.464038  -0.011831
     9  C    7.814454   0.490601  17.660406   0.478100  -0.739018  -0.016631
    10  H    0.028907   0.079280   0.478100   0.458561  -0.040110  -0.000687
    11  S   -1.961028  -0.464038  -0.739018  -0.040110  16.781948   0.335840
    12  O   -0.054194  -0.011831  -0.016631  -0.000687   0.335840   8.488526
    13  O   -0.123045  -0.018614  -0.088201  -0.000827   0.355730  -0.253667
    14  N   -0.079211   0.073376  -0.437533  -0.003641  -0.541372  -0.154294
    15  H   -0.008346  -0.003500   0.015004  -0.000227   0.067851  -0.001398
    16  H    0.006161  -0.004660   0.077600  -0.000186   0.073123   0.009286
    17  N    0.732694   0.014324   0.026272  -0.000948   0.016325   0.000238
    18  C    1.343060  -0.981766   0.086658   0.000343  -0.043759  -0.000481
    19  N   -1.489918   0.249935  -0.042353   0.002186  -0.033814  -0.000304
    20  O   -0.269887   0.277017   0.129988   0.005891  -0.023962  -0.000287
    21  O    0.064855   0.769581  -0.007016   0.000512  -0.000885   0.000002
    22  H    0.040272   0.011042  -0.003469   0.000002   0.000110   0.000001
    23  C   -0.339680  -0.252983   0.015082   0.000485  -0.006704  -0.000035
    24  C   -1.884522  -0.121872   0.175123  -0.000078  -0.012443  -0.000020
    25  S    0.313692  -0.078704  -0.014920  -0.000036   0.003195   0.000021
    26  C   -0.081378   0.052069   0.003361   0.000004  -0.000838  -0.000004
    27  C   -0.040616  -0.012131   0.002390   0.000003  -0.000163  -0.000000
    28  H    0.111001   0.038507   0.002785  -0.000001  -0.000016  -0.000000
    29  H   -0.029514   0.020445   0.000897   0.000000  -0.000015  -0.000000
    30  H    0.034974  -0.000500  -0.006504  -0.000000   0.000005  -0.000000
    31  H    0.028195  -0.042048   0.005961  -0.000001   0.000041  -0.000000
    32  H    0.018109  -0.021911  -0.000918   0.000000   0.000004   0.000000
    33  H   -0.003483   0.013707   0.000461  -0.000000  -0.000011  -0.000000
    34  H   -0.000057   0.000112   0.000004  -0.000000   0.000001   0.000000
    35  H   -0.000245   0.001672   0.000477   0.000000  -0.000017  -0.000000
    36  F    0.000845  -0.000396  -0.000015  -0.000000   0.000000  -0.000000
    37  F   -0.000440  -0.000135   0.000039   0.000000  -0.000000  -0.000000
    38  F   -0.001303   0.007233   0.000236   0.000000  -0.000002  -0.000000
              13         14         15         16         17         18
     1  C    0.413440   0.299444  -0.035755  -0.089737   0.180291  -0.273429
     2  C   -0.336673   0.419682  -0.005467  -0.025472   0.046632  -0.304214
     3  Cl  -0.011192  -0.043673   0.000729   0.000853  -0.004506  -0.005758
     4  C    0.059567  -0.137478   0.003957   0.003365  -0.203441   0.139712
     5  H    0.000013   0.000118  -0.000000  -0.000000  -0.010910   0.002393
     6  C    0.070582  -0.043817   0.000087  -0.005878  -0.464394  -0.654226
     7  C   -0.123045  -0.079211  -0.008346   0.006161   0.732694   1.343060
     8  S   -0.018614   0.073376  -0.003500  -0.004660   0.014324  -0.981766
     9  C   -0.088201  -0.437533   0.015004   0.077600   0.026272   0.086658
    10  H   -0.000827  -0.003641  -0.000227  -0.000186  -0.000948   0.000343
    11  S    0.355730  -0.541372   0.067851   0.073123   0.016325  -0.043759
    12  O   -0.253667  -0.154294  -0.001398   0.009286   0.000238  -0.000481
    13  O    8.491764  -0.155684   0.009078  -0.001017  -0.000117  -0.002066
    14  N   -0.155684   8.558365   0.195028   0.193749   0.002185  -0.013323
    15  H    0.009078   0.195028   0.312345  -0.022533  -0.000013   0.000127
    16  H   -0.001017   0.193749  -0.022533   0.316411   0.000000   0.000321
    17  N   -0.000117   0.002185  -0.000013   0.000000   8.087023  -0.841184
    18  C   -0.002066  -0.013323   0.000127   0.000321  -0.841184  18.568064
    19  N   -0.000275  -0.001291   0.000024  -0.000018  -0.533661  -0.979622
    20  O   -0.000190  -0.002884  -0.000042   0.000065  -0.031556   0.151382
    21  O   -0.000195   0.001320  -0.000017   0.000025   0.101621  -0.128408
    22  H    0.000000   0.000003  -0.000000  -0.000000   0.233698   0.019084
    23  C   -0.000055  -0.000139   0.000005  -0.000024  -0.167488  -0.466908
    24  C   -0.000190  -0.000651  -0.000001   0.000011   0.136322  -8.988138
    25  S    0.000027   0.000004  -0.000000   0.000000   0.060443   0.584351
    26  C   -0.000011  -0.000007   0.000000  -0.000000   0.056569  -0.350995
    27  C   -0.000000  -0.000005  -0.000000   0.000000  -0.007034  -0.427822
    28  H    0.000000  -0.000002   0.000000   0.000000  -0.058418   0.556651
    29  H   -0.000000  -0.000000   0.000000  -0.000000  -0.010865  -0.093245
    30  H    0.000000  -0.000000  -0.000000  -0.000000   0.009646   0.091689
    31  H    0.000000   0.000002  -0.000000  -0.000000   0.001763   0.041795
    32  H    0.000000  -0.000000   0.000000   0.000000   0.010645  -0.002415
    33  H   -0.000000  -0.000000   0.000000   0.000000   0.013293  -0.103096
    34  H    0.000000   0.000000   0.000000   0.000000  -0.002263  -0.000918
    35  H   -0.000000  -0.000000  -0.000000   0.000000   0.012197   0.000835
    36  F    0.000000   0.000000   0.000000   0.000000   0.000010   0.041262
    37  F   -0.000000   0.000000  -0.000000   0.000000   0.000816  -0.014994
    38  F   -0.000000  -0.000000  -0.000000   0.000000  -0.002720   0.023109
              19         20         21         22         23         24
     1  C   -0.621523  -0.258177  -0.036967   0.006933  -0.051582  -0.507374
     2  C    0.328260   0.033006   0.005249   0.024769   0.039273   0.214201
     3  Cl  -0.004527  -0.001159  -0.000354   0.000272  -0.000345  -0.004967
     4  C    0.058790   0.035596   0.045159   0.047384  -0.034849  -0.059499
     5  H    0.000388   0.000010   0.000026   0.005170   0.000019   0.000688
     6  C    0.652631  -0.054508  -0.304525  -0.116688   0.216464   0.242040
     7  C   -1.489918  -0.269887   0.064855   0.040272  -0.339680  -1.884522
     8  S    0.249935   0.277017   0.769581   0.011042  -0.252983  -0.121872
     9  C   -0.042353   0.129988  -0.007016  -0.003469   0.015082   0.175123
    10  H    0.002186   0.005891   0.000512   0.000002   0.000485  -0.000078
    11  S   -0.033814  -0.023962  -0.000885   0.000110  -0.006704  -0.012443
    12  O   -0.000304  -0.000287   0.000002   0.000001  -0.000035  -0.000020
    13  O   -0.000275  -0.000190  -0.000195   0.000000  -0.000055  -0.000190
    14  N   -0.001291  -0.002884   0.001320   0.000003  -0.000139  -0.000651
    15  H    0.000024  -0.000042  -0.000017  -0.000000   0.000005  -0.000001
    16  H   -0.000018   0.000065   0.000025  -0.000000  -0.000024   0.000011
    17  N   -0.533661  -0.031556   0.101621   0.233698  -0.167488   0.136322
    18  C   -0.979622   0.151382  -0.128408   0.019084  -0.466908  -8.988138
    19  N    9.028241  -0.007170  -0.235721   0.005100   0.547102   0.967126
    20  O   -0.007170   8.661538  -0.208427  -0.000039  -0.048227   0.110621
    21  O   -0.235721  -0.208427   8.439743   0.000478  -0.100969  -0.055005
    22  H    0.005100  -0.000039   0.000478   0.308162   0.000885  -0.084702
    23  C    0.547102  -0.048227  -0.100969   0.000885   5.865669   0.263828
    24  C    0.967126   0.110621  -0.055005  -0.084702   0.263828  15.886959
    25  S   -0.270808   0.000756   0.005651   0.080289  -0.128787  -1.021145
    26  C    0.045806   0.000859   0.004447  -0.014546  -0.004981   0.173208
    27  C    0.045452   0.000329  -0.001198  -0.003144   0.022531   0.436641
    28  H   -0.098377  -0.000090   0.012614   0.000965   0.005167  -0.301898
    29  H   -0.029342   0.000994  -0.001034  -0.000013   0.404092   0.071390
    30  H   -0.033112  -0.001215   0.008596   0.000009   0.337654  -0.128727
    31  H   -0.081405   0.013970  -0.004219   0.000002   0.381587  -0.000318
    32  H   -0.024793  -0.000014  -0.000627   0.000383  -0.007386   0.314916
    33  H    0.027460   0.000116   0.000086  -0.000547  -0.005064   0.394668
    34  H    0.000137   0.000000   0.000003   0.000023   0.000301   0.021610
    35  H    0.001337  -0.000001  -0.000066  -0.001372   0.000955  -0.002549
    36  F   -0.000843  -0.000000  -0.000002   0.000009  -0.000865  -0.055433
    37  F    0.000163   0.000000  -0.000019  -0.000024  -0.000569   0.011033
    38  F    0.006917   0.000019  -0.000032  -0.000082  -0.001283  -0.005933
              25         26         27         28         29         30
     1  C    0.054132  -0.019996  -0.004833   0.028120  -0.000703  -0.000318
     2  C   -0.089832   0.033107   0.000408   0.000595   0.000182   0.000109
     3  Cl   0.003222  -0.001001  -0.000101   0.000012  -0.000001   0.000000
     4  C    0.034683   0.032131  -0.013524   0.020488  -0.001549   0.003128
     5  H   -0.001437   0.000086   0.000055  -0.000004   0.000000  -0.000000
     6  C   -0.089564  -0.057373   0.018107  -0.103473   0.010653  -0.000675
     7  C    0.313692  -0.081378  -0.040616   0.111001  -0.029514   0.034974
     8  S   -0.078704   0.052069  -0.012131   0.038507   0.020445  -0.000500
     9  C   -0.014920   0.003361   0.002390   0.002785   0.000897  -0.006504
    10  H   -0.000036   0.000004   0.000003  -0.000001   0.000000  -0.000000
    11  S    0.003195  -0.000838  -0.000163  -0.000016  -0.000015   0.000005
    12  O    0.000021  -0.000004  -0.000000  -0.000000  -0.000000  -0.000000
    13  O    0.000027  -0.000011  -0.000000   0.000000  -0.000000   0.000000
    14  N    0.000004  -0.000007  -0.000005  -0.000002  -0.000000  -0.000000
    15  H   -0.000000   0.000000  -0.000000   0.000000   0.000000  -0.000000
    16  H    0.000000  -0.000000   0.000000   0.000000  -0.000000  -0.000000
    17  N    0.060443   0.056569  -0.007034  -0.058418  -0.010865   0.009646
    18  C    0.584351  -0.350995  -0.427822   0.556651  -0.093245   0.091689
    19  N   -0.270808   0.045806   0.045452  -0.098377  -0.029342  -0.033112
    20  O    0.000756   0.000859   0.000329  -0.000090   0.000994  -0.001215
    21  O    0.005651   0.004447  -0.001198   0.012614  -0.001034   0.008596
    22  H    0.080289  -0.014546  -0.003144   0.000965  -0.000013   0.000009
    23  C   -0.128787  -0.004981   0.022531   0.005167   0.404092   0.337654
    24  C   -1.021145   0.173208   0.436641  -0.301898   0.071390  -0.128727
    25  S   16.709185  -0.209175  -0.141724  -0.031283  -0.004252   0.005886
    26  C   -0.209175   6.422505   0.301631   0.005408   0.000029  -0.001059
    27  C   -0.141724   0.301631   4.373485   0.001303  -0.000302  -0.000583
    28  H   -0.031283   0.005408   0.001303   0.519550  -0.000628   0.005422
    29  H   -0.004252   0.000029  -0.000302  -0.000628   0.477738  -0.036787
    30  H    0.005886  -0.001059  -0.000583   0.005422  -0.036787   0.455524
    31  H    0.001160  -0.000055  -0.000239  -0.000218  -0.017044  -0.022427
    32  H    0.027803  -0.019257  -0.001570  -0.004081  -0.004126  -0.001369
    33  H   -0.059760   0.017055  -0.001110   0.003395  -0.001361   0.000395
    34  H   -0.046444   0.350868  -0.024116   0.000042   0.000000   0.000000
    35  H   -0.068969   0.353954  -0.027241   0.001989   0.000000  -0.000004
    36  F    0.042472  -0.119745   0.194548  -0.000192   0.000003  -0.000004
    37  F    0.009261  -0.085075   0.183267  -0.000180   0.000000   0.000004
    38  F   -0.012382  -0.110412   0.190591   0.001627  -0.000094  -0.000542
              31         32         33         34         35         36
     1  C    0.001944   0.000155   0.000013   0.000041  -0.000109   0.000012
     2  C   -0.000186  -0.000542   0.001402   0.000093  -0.000789  -0.000035
     3  Cl   0.000001   0.000002  -0.000005   0.000001  -0.000022   0.000000
     4  C   -0.000093   0.000267   0.002119  -0.000030  -0.003982  -0.000081
     5  H   -0.000000   0.000000  -0.000001   0.000000  -0.000001   0.000000
     6  C   -0.004451  -0.008965   0.002320   0.001277  -0.001246  -0.000231
     7  C    0.028195   0.018109  -0.003483  -0.000057  -0.000245   0.000845
     8  S   -0.042048  -0.021911   0.013707   0.000112   0.001672  -0.000396
     9  C    0.005961  -0.000918   0.000461   0.000004   0.000477  -0.000015
    10  H   -0.000001   0.000000  -0.000000  -0.000000   0.000000  -0.000000
    11  S    0.000041   0.000004  -0.000011   0.000001  -0.000017   0.000000
    12  O   -0.000000   0.000000  -0.000000   0.000000  -0.000000  -0.000000
    13  O    0.000000   0.000000  -0.000000   0.000000  -0.000000   0.000000
    14  N    0.000002  -0.000000  -0.000000   0.000000  -0.000000   0.000000
    15  H   -0.000000   0.000000   0.000000   0.000000  -0.000000   0.000000
    16  H   -0.000000   0.000000   0.000000   0.000000   0.000000   0.000000
    17  N    0.001763   0.010645   0.013293  -0.002263   0.012197   0.000010
    18  C    0.041795  -0.002415  -0.103096  -0.000918   0.000835   0.041262
    19  N   -0.081405  -0.024793   0.027460   0.000137   0.001337  -0.000843
    20  O    0.013970  -0.000014   0.000116   0.000000  -0.000001  -0.000000
    21  O   -0.004219  -0.000627   0.000086   0.000003  -0.000066  -0.000002
    22  H    0.000002   0.000383  -0.000547   0.000023  -0.001372   0.000009
    23  C    0.381587  -0.007386  -0.005064   0.000301   0.000955  -0.000865
    24  C   -0.000318   0.314916   0.394668   0.021610  -0.002549  -0.055433
    25  S    0.001160   0.027803  -0.059760  -0.046444  -0.068969   0.042472
    26  C   -0.000055  -0.019257   0.017055   0.350868   0.353954  -0.119745
    27  C   -0.000239  -0.001570  -0.001110  -0.024116  -0.027241   0.194548
    28  H   -0.000218  -0.004081   0.003395   0.000042   0.001989  -0.000192
    29  H   -0.017044  -0.004126  -0.001361   0.000000   0.000000   0.000003
    30  H   -0.022427  -0.001369   0.000395   0.000000  -0.000004  -0.000004
    31  H    0.423865   0.000180  -0.000036  -0.000000   0.000000   0.000000
    32  H    0.000180   0.446604  -0.022950  -0.000094  -0.000425   0.000409
    33  H   -0.000036  -0.022950   0.418866  -0.000032   0.000003  -0.000047
    34  H   -0.000000  -0.000094  -0.000032   0.415758  -0.016894  -0.004593
    35  H    0.000000  -0.000425   0.000003  -0.016894   0.449809   0.007233
    36  F    0.000000   0.000409  -0.000047  -0.004593   0.007233   9.258418
    37  F    0.000000  -0.000344   0.000017  -0.002481  -0.001227  -0.047861
    38  F   -0.000018  -0.003532   0.000528   0.007662  -0.002542  -0.042062
              37         38
     1  C   -0.000041  -0.000033
     2  C   -0.000006   0.000116
     3  Cl  -0.000000  -0.000001
     4  C   -0.000347  -0.000927
     5  H   -0.000000  -0.000000
     6  C    0.001684   0.007969
     7  C   -0.000440  -0.001303
     8  S   -0.000135   0.007233
     9  C    0.000039   0.000236
    10  H    0.000000   0.000000
    11  S   -0.000000  -0.000002
    12  O   -0.000000  -0.000000
    13  O   -0.000000  -0.000000
    14  N    0.000000  -0.000000
    15  H   -0.000000  -0.000000
    16  H    0.000000   0.000000
    17  N    0.000816  -0.002720
    18  C   -0.014994   0.023109
    19  N    0.000163   0.006917
    20  O    0.000000   0.000019
    21  O   -0.000019  -0.000032
    22  H   -0.000024  -0.000082
    23  C   -0.000569  -0.001283
    24  C    0.011033  -0.005933
    25  S    0.009261  -0.012382
    26  C   -0.085075  -0.110412
    27  C    0.183267   0.190591
    28  H   -0.000180   0.001627
    29  H    0.000000  -0.000094
    30  H    0.000004  -0.000542
    31  H    0.000000  -0.000018
    32  H   -0.000344  -0.003532
    33  H    0.000017   0.000528
    34  H   -0.002481   0.007662
    35  H   -0.001227  -0.002542
    36  F   -0.047861  -0.042062
    37  F    9.279704  -0.042053
    38  F   -0.042053   9.277118
 Mulliken charges:
               1
     1  C   -2.104313
     2  C    0.107936
     3  Cl   0.387292
     4  C   -0.109521
     5  H    0.237734
     6  C    0.682992
     7  C   -1.050411
     8  S    1.614835
     9  C    0.378185
    10  H    0.254352
    11  S    1.652650
    12  O   -0.402800
    13  O   -0.408182
    14  N   -1.128270
    15  H    0.473065
    16  H    0.468555
    17  N   -0.403492
    18  C   -0.974071
    19  N   -0.478177
    20  O   -0.514323
    21  O   -0.374284
    22  H    0.439585
    23  C   -0.482172
    24  C   -0.184919
    25  S    0.332988
    26  C   -0.777188
    27  C    0.936715
    28  H    0.283219
    29  H    0.244450
    30  H    0.280786
    31  H    0.272293
    32  H    0.305842
    33  H    0.301599
    34  H    0.299991
    35  H    0.297240
    36  F   -0.272814
    37  F   -0.290194
    38  F   -0.297174
 Sum of Mulliken charges =  -0.00000
 Mulliken charges with hydrogens summed into heavy atoms:
               1
     1  C   -2.104313
     2  C    0.107936
     3  Cl   0.387292
     4  C    0.128213
     6  C    0.682992
     7  C   -1.050411
     8  S    1.614835
     9  C    0.632537
    11  S    1.652650
    12  O   -0.402800
    13  O   -0.408182
    14  N   -0.186650
    17  N    0.036093
    18  C   -0.690852
    19  N   -0.478177
    20  O   -0.514323
    21  O   -0.374284
    23  C    0.315358
    24  C    0.422523
    25  S    0.332988
    26  C   -0.179957
    27  C    0.936715
    36  F   -0.272814
    37  F   -0.290194
    38  F   -0.297174
 Electronic spatial extent (au):  <R**2>=          14135.3632
 Charge=             -0.0000 electrons
 Dipole moment (field-independent basis, Debye):
    X=              7.2836    Y=             -0.4483    Z=             -2.2464  Tot=              7.6353
 Quadrupole moment (field-independent basis, Debye-Ang):
   XX=           -215.4375   YY=           -170.5658   ZZ=           -181.5576
   XY=            -16.6921   XZ=             -7.4064   YZ=              0.1227
 Traceless Quadrupole moment (field-independent basis, Debye-Ang):
   XX=            -26.2505   YY=             18.6211   ZZ=              7.6294
   XY=            -16.6921   XZ=             -7.4064   YZ=              0.1227
 Octapole moment (field-independent basis, Debye-Ang**2):
  XXX=            255.2396  YYY=            -42.4972  ZZZ=             14.2625  XYY=             36.6248
  XXY=            112.1477  XXZ=            -18.7929  XZZ=             37.5191  YZZ=              4.8976
  YYZ=              3.9029  XYZ=            -44.6804
 Hexadecapole moment (field-independent basis, Debye-Ang**3):
 XXXX=         -15704.0450 YYYY=          -3009.6135 ZZZZ=          -1145.5704 XXXY=           -399.9696
 XXXZ=             73.3340 YYYX=            -31.0145 YYYZ=            -22.6875 ZZZX=             64.8037
 ZZZY=              2.9379 XXYY=          -2477.3640 XXZZ=          -2556.2915 YYZZ=           -709.5065
 XXYZ=             31.8964 YYXZ=             20.1213 ZZXY=            -36.8337
 N-N= 3.150295038371D+03 E-N=-1.301706895075D+04  KE= 2.830974564269D+03
 Calling FoFJK, ICntrl=      2127 FMM=F ISym2X=0 I1Cent= 0 IOpClX= 0 NMat=1 NMatS=1 NMatT=0.
 ***** Axes restored to original set *****
 -------------------------------------------------------------------
 Center     Atomic                   Forces (Hartrees/Bohr)
 Number     Number              X              Y              Z
 -------------------------------------------------------------------
      1        6           0.003435254   -0.000339204   -0.002781818
      2        6          -0.005885090    0.000912381    0.007252427
      3       17           0.003847677   -0.000018078   -0.001354183
      4        6           0.005815097   -0.001030677   -0.004941082
      5        1          -0.001032286    0.000554524    0.001516615
      6        6          -0.001926467    0.002847280    0.012866235
      7        6          -0.001477949    0.000145942   -0.005478996
      8       16           0.020987269   -0.001900375    0.018081435
      9        6          -0.003067921   -0.000762562   -0.001919210
     10        1           0.000514597   -0.000057120   -0.002342355
     11       16          -0.039221830    0.001237622    0.017121066
     12        8           0.012058730   -0.008603455   -0.006214079
     13        8           0.011251422    0.007004609   -0.008927334
     14        7           0.017085459    0.000242426   -0.004086969
     15        1          -0.002540801   -0.001221405    0.003111308
     16        1          -0.002881642    0.001964910    0.002775238
     17        7          -0.000398723   -0.003280766   -0.009020103
     18        6           0.001681562    0.005142577    0.000849372
     19        7          -0.002205631   -0.004552446   -0.007364082
     20        8          -0.007866054   -0.004293925   -0.005334047
     21        8          -0.008314362    0.006511664   -0.006059102
     22        1           0.003139289    0.000907047   -0.000535240
     23        6          -0.002458324    0.001554221    0.000754360
     24        6          -0.000673496   -0.001279527   -0.000581823
     25       16          -0.002002527    0.001176858   -0.000587965
     26        6          -0.000070894    0.001050413    0.000688960
     27        6           0.008393157   -0.008682615   -0.008463581
     28        1           0.001545155   -0.001975027    0.000936743
     29        1          -0.000083701    0.000656285   -0.000514100
     30        1           0.000975633   -0.000867764    0.000659579
     31        1          -0.000773091   -0.000265439    0.001404006
     32        1          -0.000124637   -0.000693551   -0.000402225
     33        1          -0.000647359    0.000224869    0.000773557
     34        1           0.000195339    0.000439860    0.000064050
     35        1          -0.000031889   -0.000336783    0.000186843
     36        9          -0.002441624    0.001680595    0.004794152
     37        9          -0.002347901    0.003718512    0.000991456
     38        9          -0.002451441    0.002188124    0.002080890
 -------------------------------------------------------------------
 Cartesian Forces:  Max     0.039221830 RMS     0.006399175

 GradGradGradGradGradGradGradGradGradGradGradGradGradGradGradGradGradGrad
 Berny optimization.
 FormGI is forming the generalized inverse of G from B-inverse, IUseBI=4.
 Internal  Forces:  Max     0.013949308 RMS     0.002762905
 Search for a local minimum.
 Step number   1 out of a maximum of  213
 All quantities printed in internal units (Hartrees-Bohrs-Radians)
 Mixed Optimization -- RFO/linear search
[...]
 005193,0.00008317,0.00000835,-0.00005058,-0.00006088,0.00010252,0.0000
 4368,-0.00088595,0.00286843,-0.00072950,0.00740950,0.00378067,0.003721
 25,-0.21634161,-0.11488295,-0.07049170,-0.02095250,-0.01845636,-0.0136
 0361,-0.00000890,-0.00008864,0.00010448,-0.00003171,-0.00003811,0.0000
 1214,0.00001445,-0.00001527,0.00000652,0.00001110,-0.00002510,0.000015
 37,0.00004400,0.00017042,-0.00000903,0.00080198,0.00050137,0.00037414,
 0.23373528,0.00002050,-0.00000332,-0.00002355,-0.00001871,-0.00000074,
 0.00001855,0.00002583,-0.00000195,-0.00000943,0.00000788,-0.00001110,-
 0.00005508,0.00000355,-0.00000882,-0.00000455,0.00002403,0.00003883,0.
 00012745,-0.00001577,-0.00000591,-0.00005185,-0.00001536,-0.00009510,0
 .00026505,-0.00000261,0.00000827,0.00002988,-0.00000171,-0.00000009,0.
 00000266,-0.00001547,0.00001035,0.00004833,0.00000966,-0.00001225,-0.0
 0001295,0.00000986,0.00000603,-0.00001804,0.00000016,-0.00000356,-0.00
 001287,-0.00000030,0.00000259,0.00000445,0.,-0.00000063,0.00000486,-0.
 00003759,0.00008565,-0.00023948,0.00066910,-0.00011745,0.00086718,-0.0
 0011198,0.00016623,-0.00019085,-0.00001628,-0.00000293,-0.00007393,-0.
 00001986,0.00010518,-0.00007159,-0.00010323,-0.00008361,0.00004617,0.0
 0004213,-0.00009602,-0.00001355,0.00352703,-0.00594032,0.00251626,-0.0
 1880923,-0.01580356,-0.00948219,-0.12230991,-0.12717694,-0.05404485,0.
 00528830,0.00570326,0.00427455,-0.00003467,0.00022265,-0.00005546,0.00
 005261,0.00004169,-0.00001796,-0.00000551,0.00001084,-0.00000332,-0.00
 000450,0.00002305,-0.00001960,0.00018392,0.00008940,0.00020781,-0.0018
 5208,-0.00075607,-0.00101732,0.12391610,0.13907224,0.00002790,-0.00001
 026,-0.00003314,-0.00002295,0.00000550,0.00001696,0.00002842,-0.000000
 59,-0.00000660,0.00002124,0.00001104,-0.00006882,0.00000755,-0.0000233
 4,0.00000077,-0.00002677,0.00002864,0.00023542,-0.00002350,-0.00001231
 ,-0.00006884,-0.00001584,0.00005157,0.00025322,-0.00000753,0.00001353,
 0.00004358,-0.00000208,-0.00000050,0.00000196,-0.00002310,-0.00001008,
 0.00004727,0.00001011,-0.00000309,-0.00001140,0.00001287,0.00001722,-0
 .00001903,0.00000460,0.00000252,-0.00000852,-0.00000039,0.00000075,0.0
 0000266,-0.00000085,-0.00000211,0.00000298,0.00013193,-0.00017031,-0.0
 0014206,-0.00050731,0.00061006,-0.00006393,-0.00006068,-0.00040156,-0.
 00013742,-0.00001687,-0.00002752,-0.00005153,-0.00000730,-0.00000547,-
 0.00008024,-0.00010432,-0.00003249,-0.00005322,0.00008210,0.00003014,-
 0.00007980,-0.00041254,0.00136215,-0.00066740,0.00421757,0.00342666,0.
 00175877,-0.07388083,-0.05352639,-0.08045761,0.01298144,0.01014480,0.0
 0576846,0.00033008,-0.00033918,0.00016489,-0.00000279,-0.00001886,0.00
 001996,-0.00000463,0.00001078,0.00000441,-0.00001172,-0.00000007,0.000
 01192,-0.00005977,-0.00012547,-0.00004680,0.00035914,0.00021429,0.0003
 3759,0.07781737,0.05610150,0.08175523,-0.00008505,0.00000582,0.0000005
 5,0.00003865,0.00000965,0.00006111,-0.00003925,0.00000032,0.00000796,0
 .00004260,-0.00002142,0.00003230,-0.00002932,0.00004804,-0.00000753,-0
 .00014007,0.00006577,0.00008001,-0.00004528,0.00000148,0.00005654,0.00
 028290,-0.00004632,-0.00060005,-0.00000050,-0.00002166,-0.00008496,0.0
 0000958,-0.00000204,-0.00001206,0.00003905,0.00002800,-0.00003462,-0.0
 0001273,-0.00000221,0.00001079,-0.00001856,-0.00002545,0.00001791,-0.0
 0001945,-0.00000366,0.00000734,0.00000264,-0.00000032,-0.00000630,0.00
 000381,0.00000129,-0.00000593,-0.00038895,-0.00042460,0.00030279,0.001
 13715,-0.00073757,-0.00046308,-0.00008148,0.00030311,0.00058543,-0.000
 00549,0.00006854,0.00018636,-0.00005819,0.00007930,0.00021528,-0.00008
 855,0.00074569,-0.00010446,-0.00003340,-0.00004420,0.00003402,-0.00053
 277,-0.00081628,0.00117451,-0.00078631,0.00304995,-0.00626046,-0.05448
 504,0.00661293,-0.03243774,0.00617379,-0.00590290,0.02817482,-0.000691
 60,-0.00076453,-0.00069375,-0.00002326,-0.00001123,0.00000410,-0.00002
 552,0.00000868,-0.00000679,0.00000021,0.00000462,0.00000448,-0.0000805
 2,-0.00005094,-0.00000765,-0.00007394,0.00005339,-0.00013992,-0.001221
 18,0.00532689,-0.02415135,0.05520739,0.00000192,0.00004694,0.00018053,
 0.00007126,-0.00005272,-0.00019050,-0.00008292,0.00001027,0.00003318,-
 0.00020722,0.00005153,0.00026932,0.00001178,-0.00001359,0.00000831,0.0
 0017725,-0.00018613,-0.00117712,0.00017583,0.00006014,0.00023853,-0.00
 027184,0.00002268,-0.00034261,0.00002336,-0.00002695,-0.00007766,0.000
 00009,0.00000113,-0.00000047,0.00004120,-0.00008476,-0.00028355,-0.000
 03838,0.00007040,0.00007163,-0.00003727,-0.00002115,0.00010325,0.00002
 830,0.00002087,0.00007277,-0.00000243,-0.00001577,-0.00001415,-0.00000
 268,0.00000635,-0.00002087,-0.00033939,0.00125907,0.00067727,-0.000653
 08,-0.00178833,-0.00035455,0.00014899,0.00074152,0.00020722,0.00009831
 ,0.00003672,0.00006781,0.00007576,-0.00003679,0.00008619,0.00044531,-0
 .00078095,0.00056328,-0.00011882,-0.00009983,0.00014889,0.00034823,0.0
 0247999,0.00022196,0.00715624,-0.01624349,0.02367418,0.00481626,-0.050
 42948,0.05336532,-0.00434396,0.00241198,-0.00808660,-0.00122504,-0.000
 35996,-0.00119113,0.00000282,0.00003504,-0.00002976,-0.00000989,-0.000
 02486,-0.00003015,0.00001974,0.00000945,-0.00001941,-0.00023271,-0.000
 27779,-0.00014260,0.00040150,0.00039075,0.00010311,-0.00057916,0.00403
 445,-0.01738937,-0.00877308,0.05905709,0.00002392,0.00001882,0.0000753
 2,0.00002365,-0.00003960,-0.00009578,-0.00002434,0.00000188,0.00000960
 ,-0.00009931,0.00003432,0.00009568,0.00000882,0.00000254,0.00000436,0.
 00020114,-0.00007541,-0.00054662,0.00007432,0.00001949,0.00009474,-0.0
 0020934,-0.00000643,0.00033375,0.00002082,-0.00000766,-0.00001341,-0.0
 0000381,0.00000091,0.00000606,0.00000715,-0.00003927,-0.00011530,-0.00
 001246,0.00002843,0.00002916,-0.00001204,-0.00000369,0.00003992,0.0000
 1798,0.00000950,0.00002945,-0.00000215,-0.00000612,-0.00000467,-0.0000
 0233,0.00000199,-0.00000804,-0.00019861,0.00102952,0.00069354,-0.00069
 481,-0.00018215,-0.00012204,-0.00006382,-0.00039373,-0.00003288,0.0000
 5787,0.00001603,-0.00003970,0.00009048,0.00010735,-0.00008485,0.000289
 35,-0.00022108,0.00025120,-0.00000551,-0.00000745,-0.00002225,0.000014
 42,0.00009826,-0.00020981,-0.00113108,0.00196800,0.00208255,-0.0257346
 1,0.04371618,-0.31621856,-0.00577360,0.00368911,-0.01763239,-0.0004364
 7,-0.00116265,-0.00017183,0.00000307,-0.00000739,0.00000026,0.00002519
 ,0.00000406,0.00000362,0.00000104,-0.00000945,0.00000580,-0.00001665,0
 .00003127,-0.00004489,0.00007861,0.00004187,-0.00002717,-0.00015555,0.
 00156326,-0.00806568,0.03061207,-0.04863650,0.33785583,0.00007016,0.00
 002976,0.00009915,0.00000667,-0.00004156,-0.00014739,-0.00001885,0.000
 00460,0.00001556,-0.00014421,0.00004936,0.00012686,0.00002629,-0.00001
 806,-0.00000689,0.00019332,-0.00017782,-0.00057300,0.00010505,0.000013
 11,0.00009262,-0.00039541,0.00020393,0.00001944,0.00002491,0.00001046,
 0.00002026,-0.00000691,0.00000241,0.00000893,-0.00003229,-0.00007068,-
 0.00020504,-0.00000596,0.00004543,0.00005372,-0.00000499,-0.00000171,0
 .00006880,0.00004925,0.00002101,0.00006191,-0.00000578,-0.00001301,-0.
 00001054,-0.00000668,0.00000492,-0.00001639,0.00030136,0.00029258,0.00
 039533,-0.00018115,0.00026539,-0.00004012,0.00038400,-0.00001032,0.000
 10532,0.00018270,0.00003038,0.00005115,0.00020161,-0.00016022,-0.00005
 895,0.00004205,-0.00029765,-0.00030156,-0.00040287,0.00025182,0.000228
 00,-0.00097471,-0.00029779,0.00013111,-0.00004346,-0.00013632,0.000885
 69,0.00636951,-0.00225522,0.03229382,-0.08102453,0.00311536,0.00830150
 ,-0.00017779,-0.00006960,0.00015329,-0.00000767,-0.00002715,-0.0000124
 5,0.00010265,-0.00009271,0.00002590,0.00005677,-0.00005841,0.00000083,
 0.00015623,0.00049155,0.00011301,0.00032290,0.00003323,0.00003709,0.00
 224180,-0.00006948,-0.00096931,-0.00478525,0.00258729,0.00294689,0.076
 83707,0.00000398,-0.00003163,-0.00012222,-0.00006510,0.00003551,0.0001
 2881,0.00006918,-0.00000685,-0.00002993,0.00014131,-0.00004054,-0.0001
 6199,-0.00001558,-0.00000546,0.00000951,-0.00015217,0.00013329,0.00058
 415,-0.00008047,-0.00001181,-0.00019478,0.00017098,-0.00022718,0.00047
 942,-0.00002566,0.00001453,0.00004932,-0.00000155,-0.00000403,0.000001
 84,-0.00002095,0.00003909,0.00027552,0.00002595,-0.00004711,-0.0000728
 1,0.00003084,0.00003634,-0.00010200,-0.00002987,-0.00001480,-0.0000790
 6,0.00000191,0.00001343,0.00001897,0.00000318,-0.00000945,0.00002414,0
 .00005518,-0.00020496,-0.00073941,0.00001197,-0.00000228,0.00022348,-0
 .00006777,0.00000839,-0.00031391,-0.00009536,-0.00001422,-0.00015932,-
 0.00008389,0.00020779,-0.00013911,-0.00006284,0.00010356,0.00026936,-0
 .00004742,-0.00001396,-0.00001500,0.00025209,0.00029725,0.00007394,0.0
 0014154,0.00089084,-0.00219235,0.00112834,0.00695542,-0.00816793,0.000
 98162,-0.07697412,0.02126913,0.00003980,-0.00004170,0.00005007,0.00001
 776,0.00004733,-0.00000316,0.00004814,-0.00001915,0.00003782,0.0000069
 4,-0.00001403,-0.00001382,0.00004333,0.00018596,0.00026188,0.00004001,
 -0.00001272,-0.00000361,0.00126349,-0.00015937,-0.00038890,0.00180181,
 0.00028734,-0.00074580,-0.00262906,0.08648397,0.00007538,-0.00009000,-
 0.00028445,-0.00022175,0.00008620,0.00028329,0.00020093,-0.00002329,-0
 .00007506,0.00028905,-0.00011747,-0.00036125,-0.00003384,0.00003252,-0
 .00000226,-0.00014325,0.00036056,0.00130023,-0.00014250,-0.00014950,-0
 .00036579,0.00004839,0.00073471,0.00094693,-0.00005047,0.00005411,0.00
 018306,-0.00000792,0.00000923,0.00001991,-0.00008298,0.00029667,0.0006
 9857,0.00009388,-0.00021922,-0.00018369,0.00008398,0.00001235,-0.00025
 433,-0.00006987,-0.00008403,-0.00021454,0.00000421,0.00005431,0.000052
 88,0.00000437,-0.00000076,0.00007273,0.00037829,-0.00081416,-0.0009449
 6,-0.00056229,0.00173817,0.00038313,-0.00006353,-0.00074327,-0.0004004
 1,-0.00019450,-0.00033867,-0.00030881,-0.00001422,-0.00035849,-0.00038
 608,-0.00002646,0.00028944,-0.00004618,-0.00017850,0.00031266,-0.00009
 644,-0.00000343,-0.00108365,0.00040693,-0.00101540,0.00121469,0.000340
 54,0.00029661,0.00599265,-0.04262208,0.01711992,0.01565607,-0.30602153
 ,0.00034124,-0.00030880,0.00041818,0.00006395,-0.00003893,-0.00000764,
 0.00017171,-0.00002590,0.00005157,0.00003455,-0.00007315,-0.00002796,-
 0.00004940,0.00045942,-0.00051379,-0.00009470,-0.00015216,-0.00021871,
 0.00008179,0.00028407,0.00004562,0.00699587,-0.00260265,-0.00184887,0.
 02344385,-0.04745228,0.42890354,0.00007411,0.00004963,0.00015662,0.000
 03146,-0.00005893,-0.00020749,-0.00004882,0.00000793,0.00003156,-0.000
 21601,0.00005984,0.00021034,0.00003421,-0.00000262,-0.00001879,0.00025
 202,-0.00024099,-0.00084106,0.00014973,-0.00000739,0.00020267,-0.00050
 632,0.00052076,-0.00034885,0.00003576,0.00000806,0.00000121,-0.0000059
 8,0.00000643,0.00000780,-0.00002902,-0.00006713,-0.00034605,-0.0000160
 1,0.00005688,0.00009221,-0.00001954,-0.00002914,0.00012196,0.00006693,
 0.00002327,0.00010231,-0.00000697,-0.00001796,-0.00002052,-0.00000906,
 0.00001235,-0.00002791,0.00023639,0.00017083,0.00085349,-0.00023565,0.
 00050486,-0.00045468,0.00041962,-0.00017637,0.00037032,0.00023227,-0.0
 0000440,0.00016825,0.00026434,-0.00041040,0.00003578,-0.00000578,-0.00
 010603,-0.00061343,-0.00033042,0.00027657,0.00022107,-0.00100348,-0.00
 018219,-0.00034276,-0.00387057,0.00250067,0.00232567,-0.00359144,0.035
 92205,-0.00225655,-0.09237010,0.05241816,-0.00158581,-0.00009785,-0.00
 004219,0.00019789,-0.00003437,-0.00007432,-0.00000093,0.00006386,-0.00
 006495,0.00000153,0.00004598,-0.00004577,0.00001780,0.00030028,0.00040
 379,0.00024766,0.00056754,0.00000972,0.00018289,0.00230110,0.00026307,
 -0.00111485,0.00017774,0.00011192,0.00019361,0.01103874,0.00593726,-0.
 00747249,0.08266824,0.00002990,-0.00010816,-0.00039517,-0.00021676,0.0
 0010940,0.00040125,0.00022858,-0.00002378,-0.00009789,0.00044810,-0.00
 011472,-0.00053815,-0.00004606,-0.00002789,0.00003501,-0.00034706,0.00
 045693,0.00189003,-0.00026015,-0.00002619,-0.00063006,0.00048078,-0.00
 079225,0.00179552,-0.00007268,0.00004721,0.00017507,-0.00000784,-0.000
 01220,0.00001298,-0.00006964,0.00011324,0.00091083,0.00008500,-0.00014
 897,-0.00024129,0.00010231,0.00012841,-0.00033870,-0.00009665,-0.00004
 621,-0.00026175,0.00000581,0.00004357,0.00006340,0.00000964,-0.0000323
 6,0.00008060,0.00023824,-0.00043224,-0.00222790,-0.00017845,0.00016622
 ,0.00110819,-0.00014825,-0.00001064,-0.00113893,-0.00029530,-0.0000433
 4,-0.00057544,-0.00025383,0.00072248,-0.00052360,-0.00001755,0.0000138
 0,0.00082180,-0.00028007,0.00006319,-0.00004261,-0.00021819,0.00027616
 ,0.00078603,0.00483789,-0.00113687,-0.00279637,0.01062697,-0.03419749,
 0.00511411,0.05815294,-0.28182339,0.01929867,0.00012885,-0.00023492,0.
 00024267,0.00008545,0.00015653,-0.00002281,0.00022479,-0.00009857,0.00
 016202,0.00004881,-0.00007861,-0.00006051,0.00005947,0.00068117,-0.000
 33842,0.00008575,0.00002819,-0.00028561,0.00065645,-0.00019730,0.00079
 997,-0.00076995,-0.00039641,-0.00047404,0.00759467,-0.02714802,0.04365
 477,-0.04902396,0.40798237,0.00001737,-0.00002030,-0.00006901,-0.00005
 844,0.00002176,0.00007362,0.00005126,-0.00000590,-0.00001949,0.0000700
 0,-0.00002935,-0.00008090,-0.00001017,0.00000753,0.00000020,-0.0000523
 1,0.00009464,0.00027828,-0.00002607,-0.00005611,-0.00007695,-0.0000031
 6,0.00030380,0.00013544,-0.00001553,0.00001140,0.00004281,-0.00000131,
 0.00000363,0.00000488,-0.00001968,0.00009251,0.00018132,0.00002467,-0.
 00006367,-0.00004808,0.00002097,-0.00000436,-0.00006575,-0.00001993,-0
 .00002593,-0.00005780,0.00000163,0.00001584,0.00001430,0.00000112,0.00
 000227,0.00002010,0.00006111,-0.00015873,-0.00021719,-0.00016463,0.000
 30278,0.00013196,-0.00006665,-0.00015242,-0.00006646,-0.00006343,-0.00
 012352,-0.00006405,0.00000246,-0.00018597,-0.00007030,0.00000908,0.000
 01552,0.00006491,0.00004788,0.00001960,-0.00005682,-0.00013503,-0.0000
 2258,0.00006907,0.00237347,-0.00108577,0.00034529,0.00507725,-0.012881
 03,0.00849984,-0.00362519,0.02275948,-0.07826737,0.00005285,-0.0000016
 3,-0.00000746,0.00001856,-0.00001055,0.00000112,0.00001082,0.00001918,
 -0.00000738,-0.00000553,0.00000314,-0.00000845,-0.00005375,-0.00009341
 ,-0.00023700,-0.00005313,0.00001868,-0.00003922,0.00072733,0.00010437,
 -0.00034556,-0.00167979,0.00023978,0.00199232,-0.01285072,0.06080717,-
 0.03229848,0.01118017,-0.05902863,0.08803338,0.00023208,0.00001037,0.0
 0002955,-0.00014362,-0.00004470,-0.00015515,0.00010496,-0.00000717,-0.
 00001894,-0.00013026,0.00004801,0.00004176,0.00004290,-0.00003788,-0.0
 0001223,0.00028160,-0.00015891,-0.00040106,0.00014705,-0.00004416,-0.0
 0008800,-0.00094194,0.00074262,0.00090669,0.00001563,0.00006902,0.0001
 8906,-0.00002386,0.00000734,0.00003567,-0.00014453,-0.00002596,0.00002
 026,0.00004961,-0.00001759,-0.00000525,0.00005328,0.00003872,-0.000025
 50,0.00007498,0.00000521,-0.00000354,-0.00001201,0.00000131,0.00001321
 ,-0.00001392,0.00000344,0.00001188,0.00080641,0.00014995,0.00012728,-0
 .00085116,0.00129888,-0.00010107,0.00107822,-0.00033114,-0.00021145,0.
 00032948,-0.00009912,-0.00015347,0.00049701,-0.00045557,-0.00046324,0.
 00005457,-0.00047278,-0.00064202,-0.00137236,0.00098065,0.00061413,-0.
 00178900,0.00055962,-0.00053004,0.00104212,-0.00185618,0.00037104,-0.0
 4300904,-0.02731436,-0.01662226,-0.23954359,-0.06877033,-0.03667808,-0
 .00033536,-0.00030251,0.00072147,0.00002721,-0.00007808,-0.00000925,0.
 00044686,-0.00035041,0.00013990,0.00021192,-0.00024885,-0.00001571,-0.
 00032437,0.00277513,0.00054932,0.00080000,0.00005434,0.00022921,-0.007
 11406,0.00407362,0.00539495,0.00063617,0.00017453,-0.00011391,-0.01049
 453,-0.00883890,-0.03930048,0.00343707,-0.03182799,-0.00084352,0.29587
 449,0.00010434,-0.00006233,-0.00021537,-0.00016584,0.00004351,0.000163
 94,0.00016523,-0.00001315,-0.00006064,0.00018432,-0.00006132,-0.000312
 70,-0.00000449,-0.00002084,0.00000656,0.00003523,0.00020108,0.00094399
 ,-0.00010177,-0.00000940,-0.00038112,-0.00002617,-0.00016071,0.0014191
 9,-0.00002493,0.00005848,0.00018349,-0.00001305,-0.00000169,0.00002112
 ,-0.00008769,0.00008249,0.00050408,0.00006721,-0.00010251,-0.00013378,
 0.00007383,0.00007020,-0.00019169,-0.00003008,-0.00002996,-0.00014324,
 -0.00000098,0.00002636,0.00003866,0.00000070,-0.00001361,0.00004851,0.
 00071469,-0.00022387,-0.00138072,-0.00039892,0.00096971,0.00090727,0.0
 0026670,-0.00031111,-0.00068607,-0.00005479,-0.00007164,-0.00037639,0.
 00000649,0.00025688,-0.00046679,-0.00008097,-0.00020605,-0.00011565,-0
 .00058119,0.00036651,0.00023487,-0.00110473,-0.00392556,0.00036376,-0.
 00226460,0.00143243,-0.00003822,-0.00141953,0.00486377,-0.00140008,-0.
 07410165,-0.10728601,-0.02034222,0.00013720,-0.00040925,0.00048352,0.0
 0006771,0.00009260,-0.00003239,0.00021818,-0.00026789,0.00005438,0.000
 07743,-0.00011552,-0.00004419,0.00313897,-0.00118581,-0.00091506,0.001
 33965,-0.00006517,-0.00072576,0.00070042,0.00085634,-0.00034325,0.0002
 0307,-0.00019477,-0.00036440,-0.00862049,0.00926334,-0.01656623,-0.048
 70929,-0.06385834,-0.01089323,0.13028981,0.16001282,0.00009758,-0.0000
 5487,-0.00017646,-0.00015181,0.00004616,0.00013288,0.00013878,-0.00001
 309,-0.00004739,0.00015089,-0.00005014,-0.00023918,-0.00000291,-0.0000
 0495,-0.00000155,0.00001226,0.00011647,0.00077086,-0.00006453,-0.00008
 698,-0.00027507,-0.00009906,0.00050160,0.00092234,-0.00002144,0.000051
 81,0.00015958,-0.00001094,0.00000414,0.00001939,-0.00007313,0.00013938
 ,0.00042194,0.00006225,-0.00011884,-0.00011012,0.00005968,0.00002907,-
 0.00015783,-0.00002860,-0.00004076,-0.00012572,0.00000008,0.00002966,0
 .00003279,0.00000060,-0.00000382,0.00004364,0.00078001,-0.00057519,-0.
 00074736,-0.00103603,0.00203015,0.00011376,0.00013091,-0.00081866,-0.0
 0044408,-0.00008237,-0.00021858,-0.00023914,0.00005494,-0.00021262,-0.
 00037040,-0.00000744,-0.00006232,-0.00022137,-0.00031547,0.00041907,0.
 00004971,-0.00047726,-0.00102580,0.00018615,0.00006383,0.00007478,-0.0
 0012244,0.00899724,0.00327235,0.00961484,-0.04146839,-0.02161612,-0.08
 664248,0.00046096,-0.00067397,0.00055496,0.00003788,-0.00004100,-0.000
 00670,0.00012698,-0.00017692,-0.00004928,0.00004103,-0.00009823,-0.000
 01208,0.00039891,0.00004766,-0.00039455,0.00040120,-0.00003225,-0.0000
 7217,0.00245071,-0.00104796,-0.00006407,-0.00186780,0.00025712,0.00170
 160,-0.05448766,-0.02346713,-0.04662378,-0.00127066,-0.00733504,0.0122
 1488,0.08699880,0.05075583,0.11020388\\-0.00000686,-0.00000828,0.00000
 658,0.00000169,-0.00001342,0.00000129,-0.00000039,0.00000260,-0.000001
 30,-0.00000364,0.00000254,0.00000710,0.00000103,-0.00000470,-0.0000006
 9,0.00000256,-0.00000454,-0.00000825,0.00000947,0.00000266,0.00001986,
 -0.00000785,-0.00001440,0.00002535,-0.00000358,0.00000857,-0.00000388,
 0.00000148,0.00000036,-0.00000438,0.00001836,-0.00001079,-0.00002539,-
 0.00000837,0.00002865,-0.00000331,-0.00000636,-0.00001171,0.00001259,-
 0.00002307,-0.00000070,0.00003460,0.00000181,0.00000480,-0.00000557,0.
 00001717,0.00000329,-0.00001929,0.00000132,0.00000611,-0.00000150,0.00
 000500,-0.00001653,-0.00000644,-0.00001011,0.00002647,-0.00003465,0.00
 000650,0.00001222,0.00000586,-0.00000258,-0.00000634,-0.00000055,-0.00
 000235,-0.00000290,-0.00000021,0.00000161,-0.00000131,0.,0.00000225,0.
 00000720,0.00000526,-0.00000774,-0.00000231,0.00000390,0.00000567,-0.0
 0000899,-0.00000033,-0.00001809,-0.00000279,0.00000099,-0.00000167,0.0
 0000367,-0.00000291,-0.00000453,0.00000050,-0.00000376,0.00000002,0.00
 000192,-0.00000214,-0.00000307,0.00000377,-0.00000178,-0.00000033,-0.0
 0000065,0.00000167,0.00000070,-0.00000182,-0.00000292,0.00000106,-0.00
 000109,0.00000447,0.00000155,0.00000143,0.00000413,0.00001101,-0.00000
 741,0.00000230,0.00000899,0.00000828,-0.00000459,0.00001134,-0.0000043
 5,-0.00000209\\\@
 The archive entry for this job was punched.


 COLLEGE PROFESSOR: SOMEONE WHO TALKS IN OTHER PEOPLE'S SLEEP.
 Job cpu time:       0 days  8 hours 10 minutes 34.0 seconds.
 Elapsed time:       0 days  0 hours 30 minutes 47.1 seconds.
 File lengths (MBytes):  RWF=   1180 Int=      0 D2E=      0 Chk=     23 Scr=      1
 Normal termination of Gaussian 16 at Fri Jul  1 23:39:02 2022.
