 Entering Gaussian System, Link 0=g16
 AtFile(1): /home/561/yj5695/Basis/6-31pGd.gbs
 Initial command:
 /apps/gaussian/g16c01/g16/l1.exe "/jobfs/50094818.gadi-pbs/Gau-1981495.inp" -scrdir="/jobfs/50094818.gadi-pbs/"
 Entering Link 1 = /apps/gaussian/g16c01/g16/l1.exe PID=   1981496.
  
 Copyright (c) 1988-2019, Gaussian, Inc.  All Rights Reserved.
  
 This is part of the Gaussian(R) 16 program.  It is based on
 the Gaussian(R) 09 system (copyright 2009, Gaussian, Inc.),
 the Gaussian(R) 03 system (copyright 2003, Gaussian, Inc.),
 the Gaussian(R) 98 system (copyright 1998, Gaussian, Inc.),
 the Gaussian(R) 94 system (copyright 1995, Gaussian, Inc.),
 the Gaussian 92(TM) system (copyright 1992, Gaussian, Inc.),
 the Gaussian 90(TM) system (copyright 1990, Gaussian, Inc.),
 the Gaussian 88(TM) system (copyright 1988, Gaussian, Inc.),
 the Gaussian 86(TM) system (copyright 1986, Carnegie Mellon
 University), and the Gaussian 82(TM) system (copyright 1983,
 Carnegie Mellon University). Gaussian is a federally registered
 trademark of Gaussian, Inc.
  
 This software contains proprietary and confidential information,
 including trade secrets, belonging to Gaussian, Inc.
  
 This software is provided under written license and may be
 used, copied, transmitted, or stored only in accord with that
 written license.
  
 The following legend is applicable only to US Government
 contracts under FAR:
  
                    RESTRICTED RIGHTS LEGEND
  
 Use, reproduction and disclosure by the US Government is
 subject to restrictions as set forth in subparagraphs (a)
 and (c) of the Commercial Computer Software - Restricted
 Rights clause in FAR 52.227-19.
  
 Gaussian, Inc.
 340 Quinnipiac St., Bldg. 40, Wallingford CT 06492
  
  
 ---------------------------------------------------------------
 Warning -- This program may not be used in any manner that
 competes with the business of Gaussian, Inc. or will provide
 assistance to any competitor of Gaussian, Inc.  The licensee
 of this program is prohibited from giving any competitor of
 Gaussian, Inc. access to this program.  By using this program,
 the user acknowledges that Gaussian, Inc. is engaged in the
 business of creating and licensing software in the field of
 computational chemistry and represents and warrants to the
 licensee that it is not a competitor of Gaussian, Inc. and that
 it will not use this program in any manner prohibited above.
 ---------------------------------------------------------------
  

 Cite this work as:
 Gaussian 16, Revision C.01,
 M. J. Frisch, G. W. Trucks, H. B. Schlegel, G. E. Scuseria, 
 M. A. Robb, J. R. Cheeseman, G. Scalmani, V. Barone, 
 G. A. Petersson, H. Nakatsuji, X. Li, M. Caricato, A. V. Marenich, 
 J. Bloino, B. G. Janesko, R. Gomperts, B. Mennucci, H. P. Hratchian, 
 J. V. Ortiz, A. F. Izmaylov, J. L. Sonnenberg, D. Williams-Young, 
 F. Ding, F. Lipparini, F. Egidi, J. Goings, B. Peng, A. Petrone, 
 T. Henderson, D. Ranasinghe, V. G. Zakrzewski, J. Gao, N. Rega, 
 G. Zheng, W. Liang, M. Hada, M. Ehara, K. Toyota, R. Fukuda, 
 J. Hasegawa, M. Ishida, T. Nakajima, Y. Honda, O. Kitao, H. Nakai, 
 T. Vreven, K. Throssell, J. A. Montgomery, Jr., J. E. Peralta, 
 F. Ogliaro, M. J. Bearpark, J. J. Heyd, E. N. Brothers, K. N. Kudin, 
 V. N. Staroverov, T. A. Keith, R. Kobayashi, J. Normand, 
 K. Raghavachari, A. P. Rendell, J. C. Burant, S. S. Iyengar, 
 J. Tomasi, M. Cossi, J. M. Millam, M. Klene, C. Adamo, R. Cammi, 
 J. W. Ochterski, R. L. Martin, K. Morokuma, O. Farkas, 
 J. B. Foresman, and D. J. Fox, Gaussian, Inc., Wallingford CT, 2019.
 
 ******************************************
 Gaussian 16:  ES64L-G16RevC.01  3-Jul-2019
                 2-Jul-2022 
 ******************************************
 %nproc=16
 Will use up to   16 processors via shared memory.
 %mem=50gb
 --------------------------------------------------
 #M062X/gen 6D INT(grid=ultrafine) OPT Freq=noraman
 --------------------------------------------------
 1/18=20,19=15,26=4,38=1/1,3;
 2/9=110,12=2,17=6,18=5,40=1/2;
 3/5=7,8=2,11=2,25=1,30=1,71=1,74=-55,75=-5/1,2,3;
 4//1;
 5/5=2,38=5/2;
 6/7=2,8=2,9=2,10=2,28=1/1;
 7//1,2,3,16;
 1/18=20,19=15,26=4/3(2);
 2/9=110/2;
 99//99;
 2/9=110/2;
 3/5=7,6=1,8=2,11=2,25=1,30=1,71=1,74=-55,75=-5,82=7/1,2,3;
 4/5=5,16=3,69=1/1;
 5/5=2,38=5/2;
 7//1,2,3,16;
 1/18=20,19=15,26=4/3(-5);
 2/9=110/2;
 6/7=2,8=2,9=2,10=2,19=2,28=1/1;
 99/9=1/99;
 ----------
 HA.38.freq
 ----------
 Symbolic Z-matrix:
 Charge =  0 Multiplicity = 1
 C                    -1.56187   1.08299  -1.13325 
 C                    -2.82057   0.92898  -1.73202 
 C                    -2.93473   0.13418  -2.87677 
 C                    -1.81817  -0.49957  -3.41487 
 C                    -0.59103  -0.32733  -2.79491 
 C                    -0.43949   0.45643  -1.65584 
 S                    -1.38664   2.11632   0.33316 
 O                    -1.72111   3.48171  -0.05822 
 O                    -2.12264   1.4668    1.41291 
 N                     0.1843    2.11956   0.76393 
 H                     0.80969   2.57677   0.09913 
 H                     0.53842   1.22521   1.10555 
 Cl                   -4.21709   1.70316  -1.08152 
 Cl                   -4.46201  -0.0797   -3.65855 
 S                     0.83748  -1.16852  -3.4599 
 H                    -1.91748  -1.10871  -4.30838 
 H                     0.53754   0.57841  -1.19766 
 O                     0.55383  -1.46376  -4.8604 
 O                     2.00978  -0.37922  -3.09522 
 N                     0.99148  -2.61488  -2.69491 
 H                     0.19649  -3.23369  -2.86727 
 H                     1.16745  -2.50876  -1.69352 
 

 GradGradGradGradGradGradGradGradGradGradGradGradGradGradGradGradGradGrad
 Berny optimization.
 Initialization pass.
                           ----------------------------
                           !    Initial Parameters    !
                           ! (Angstroms and Degrees)  !
 --------------------------                            --------------------------
 ! Name  Definition              Value          Derivative Info.                !
 --------------------------------------------------------------------------------
 ! R1    R(1,2)                  1.4023         estimate D2E/DX2                !
 ! R2    R(1,6)                  1.3876         estimate D2E/DX2                !
 ! R3    R(1,7)                  1.8025         estimate D2E/DX2                !
 ! R4    R(2,3)                  1.3983         estimate D2E/DX2                !
 ! R5    R(2,13)                 1.7242         estimate D2E/DX2                !
 ! R6    R(3,4)                  1.3921         estimate D2E/DX2                !
 ! R7    R(3,14)                 1.729          estimate D2E/DX2                !
 ! R8    R(4,5)                  1.3856         estimate D2E/DX2                !
 ! R9    R(4,16)                 1.0859         estimate D2E/DX2                !
 ! R10   R(5,6)                  1.3909         estimate D2E/DX2                !
 ! R11   R(5,15)                 1.7862         estimate D2E/DX2                !
 ! R12   R(6,17)                 1.086          estimate D2E/DX2                !
 ! R13   R(7,8)                  1.4592         estimate D2E/DX2                !
 ! R14   R(7,9)                  1.4593         estimate D2E/DX2                !
 ! R15   R(7,10)                 1.6289         estimate D2E/DX2                !
 ! R16   R(10,11)                1.0208         estimate D2E/DX2                !
 ! R17   R(10,12)                1.0208         estimate D2E/DX2                !
 ! R18   R(15,18)                1.4591         estimate D2E/DX2                !
 ! R19   R(15,19)                1.4595         estimate D2E/DX2                !
 ! R20   R(15,20)                1.6434         estimate D2E/DX2                !
 ! R21   R(20,21)                1.0221         estimate D2E/DX2                !
 ! R22   R(20,22)                1.0222         estimate D2E/DX2                !
 ! A1    A(2,1,6)              121.0388         estimate D2E/DX2                !
 ! A2    A(2,1,7)              119.8408         estimate D2E/DX2                !
 ! A3    A(6,1,7)              119.1195         estimate D2E/DX2                !
 ! A4    A(1,2,3)              119.0296         estimate D2E/DX2                !
 ! A5    A(1,2,13)             121.1044         estimate D2E/DX2                !
 ! A6    A(3,2,13)             119.8659         estimate D2E/DX2                !
 ! A7    A(2,3,4)              120.647          estimate D2E/DX2                !
 ! A8    A(2,3,14)             120.8371         estimate D2E/DX2                !
 ! A9    A(4,3,14)             118.5156         estimate D2E/DX2                !
 ! A10   A(3,4,5)              118.7382         estimate D2E/DX2                !
 ! A11   A(3,4,16)             120.004          estimate D2E/DX2                !
 ! A12   A(5,4,16)             121.2561         estimate D2E/DX2                !
 ! A13   A(4,5,6)              122.2041         estimate D2E/DX2                !
 ! A14   A(4,5,15)             118.8934         estimate D2E/DX2                !
 ! A15   A(6,5,15)             118.8888         estimate D2E/DX2                !
 ! A16   A(1,6,5)              118.3418         estimate D2E/DX2                !
 ! A17   A(1,6,17)             121.2044         estimate D2E/DX2                !
 ! A18   A(5,6,17)             120.4513         estimate D2E/DX2                !
 ! A19   A(1,7,8)              107.2135         estimate D2E/DX2                !
 ! A20   A(1,7,9)              107.3241         estimate D2E/DX2                !
 ! A21   A(1,7,10)             108.0616         estimate D2E/DX2                !
 ! A22   A(8,7,9)              119.956          estimate D2E/DX2                !
 ! A23   A(8,7,10)             106.8648         estimate D2E/DX2                !
 ! A24   A(9,7,10)             106.9551         estimate D2E/DX2                !
 ! A25   A(7,10,11)            114.8021         estimate D2E/DX2                !
 ! A26   A(7,10,12)            114.9182         estimate D2E/DX2                !
 ! A27   A(11,10,12)           113.4427         estimate D2E/DX2                !
 ! A28   A(5,15,18)            107.2868         estimate D2E/DX2                !
 ! A29   A(5,15,19)            107.1374         estimate D2E/DX2                !
 ! A30   A(5,15,20)            108.428          estimate D2E/DX2                !
 ! A31   A(18,15,19)           120.3568         estimate D2E/DX2                !
 ! A32   A(18,15,20)           106.6736         estimate D2E/DX2                !
 ! A33   A(19,15,20)           106.5212         estimate D2E/DX2                !
 ! A34   A(15,20,21)           112.4241         estimate D2E/DX2                !
 ! A35   A(15,20,22)           112.3804         estimate D2E/DX2                !
 ! A36   A(21,20,22)           111.2189         estimate D2E/DX2                !
 ! D1    D(6,1,2,3)             -0.2843         estimate D2E/DX2                !
 ! D2    D(6,1,2,13)           179.8264         estimate D2E/DX2                !
 ! D3    D(7,1,2,3)            179.3685         estimate D2E/DX2                !
 ! D4    D(7,1,2,13)            -0.5209         estimate D2E/DX2                !
 ! D5    D(2,1,6,5)              0.2336         estimate D2E/DX2                !
 ! D6    D(2,1,6,17)           179.6456         estimate D2E/DX2                !
 ! D7    D(7,1,6,5)           -179.4216         estimate D2E/DX2                !
 ! D8    D(7,1,6,17)            -0.0096         estimate D2E/DX2                !
 ! D9    D(2,1,7,8)            -63.8826         estimate D2E/DX2                !
 ! D10   D(2,1,7,9)             66.2253         estimate D2E/DX2                !
 ! D11   D(2,1,7,10)          -178.7483         estimate D2E/DX2                !
 ! D12   D(6,1,7,8)            115.7768         estimate D2E/DX2                !
 ! D13   D(6,1,7,9)           -114.1153         estimate D2E/DX2                !
 ! D14   D(6,1,7,10)             0.9111         estimate D2E/DX2                !
 ! D15   D(1,2,3,4)              0.1808         estimate D2E/DX2                !
 ! D16   D(1,2,3,14)          -179.6121         estimate D2E/DX2                !
 ! D17   D(13,2,3,4)          -179.9284         estimate D2E/DX2                !
 ! D18   D(13,2,3,14)            0.2787         estimate D2E/DX2                !
 ! D19   D(2,3,4,5)             -0.0327         estimate D2E/DX2                !
 ! D20   D(2,3,4,16)          -179.5637         estimate D2E/DX2                !
 ! D21   D(14,3,4,5)           179.7648         estimate D2E/DX2                !
 ! D22   D(14,3,4,16)            0.2338         estimate D2E/DX2                !
 ! D23   D(3,4,5,6)             -0.0183         estimate D2E/DX2                !
 ! D24   D(3,4,5,15)           178.617          estimate D2E/DX2                !
 ! D25   D(16,4,5,6)           179.5066         estimate D2E/DX2                !
 ! D26   D(16,4,5,15)           -1.8581         estimate D2E/DX2                !
 ! D27   D(4,5,6,1)             -0.0811         estimate D2E/DX2                !
 ! D28   D(4,5,6,17)          -179.4978         estimate D2E/DX2                !
 ! D29   D(15,5,6,1)          -178.7165         estimate D2E/DX2                !
 ! D30   D(15,5,6,17)            1.8669         estimate D2E/DX2                !
 ! D31   D(4,5,15,18)           22.8529         estimate D2E/DX2                !
 ! D32   D(4,5,15,19)          153.383          estimate D2E/DX2                !
 ! D33   D(4,5,15,20)          -92.0088         estimate D2E/DX2                !
 ! D34   D(6,5,15,18)         -158.4659         estimate D2E/DX2                !
 ! D35   D(6,5,15,19)          -27.9359         estimate D2E/DX2                !
 ! D36   D(6,5,15,20)           86.6723         estimate D2E/DX2                !
 ! D37   D(1,7,10,11)           66.5418         estimate D2E/DX2                !
 ! D38   D(1,7,10,12)          -67.7188         estimate D2E/DX2                !
 ! D39   D(8,7,10,11)          -48.5532         estimate D2E/DX2                !
 ! D40   D(8,7,10,12)          177.1862         estimate D2E/DX2                !
 ! D41   D(9,7,10,11)         -178.1894         estimate D2E/DX2                !
 ! D42   D(9,7,10,12)           47.5501         estimate D2E/DX2                !
 ! D43   D(5,15,20,21)          63.2494         estimate D2E/DX2                !
 ! D44   D(5,15,20,22)         -63.1461         estimate D2E/DX2                !
 ! D45   D(18,15,20,21)        -52.0128         estimate D2E/DX2                !
 ! D46   D(18,15,20,22)       -178.4082         estimate D2E/DX2                !
 ! D47   D(19,15,20,21)        178.2607         estimate D2E/DX2                !
 ! D48   D(19,15,20,22)         51.8653         estimate D2E/DX2                !
 --------------------------------------------------------------------------------
 Trust Radius=3.00D-01 FncErr=1.00D-07 GrdErr=1.00D-06 EigMax=2.50D+02 EigMin=1.00D-04
 Number of steps in this run=    116 maximum allowed number of steps=    132.
 GradGradGradGradGradGradGradGradGradGradGradGradGradGradGradGradGradGrad

                          Input orientation:                          
 ---------------------------------------------------------------------
 Center     Atomic      Atomic             Coordinates (Angstroms)
 Number     Number       Type             X           Y           Z
 ---------------------------------------------------------------------
      1          6           0       -1.561871    1.082991   -1.133250
      2          6           0       -2.820573    0.928978   -1.732016
      3          6           0       -2.934730    0.134181   -2.876767
      4          6           0       -1.818170   -0.499573   -3.414870
      5          6           0       -0.591028   -0.327332   -2.794915
      6          6           0       -0.439492    0.456428   -1.655838
      7         16           0       -1.386644    2.116317    0.333165
      8          8           0       -1.721111    3.481705   -0.058216
      9          8           0       -2.122641    1.466797    1.412910
     10          7           0        0.184300    2.119556    0.763931
     11          1           0        0.809689    2.576771    0.099126
     12          1           0        0.538417    1.225213    1.105549
     13         17           0       -4.217090    1.703158   -1.081524
     14         17           0       -4.462013   -0.079702   -3.658549
     15         16           0        0.837483   -1.168518   -3.459896
     16          1           0       -1.917483   -1.108712   -4.308377
     17          1           0        0.537538    0.578412   -1.197656
     18          8           0        0.553830   -1.463760   -4.860401
     19          8           0        2.009782   -0.379217   -3.095220
     20          7           0        0.991481   -2.614877   -2.694907
     21          1           0        0.196493   -3.233688   -2.867267
     22          1           0        1.167446   -2.508763   -1.693522
 ---------------------------------------------------------------------
                    Distance matrix (angstroms):
                    1          2          3          4          5
     1  C    0.000000
     2  C    1.402345   0.000000
     3  C    2.413469   1.398281   0.000000
     4  C    2.788546   2.424369   1.392086   0.000000
     5  C    2.385932   2.771089   2.390111   1.385600   0.000000
     6  C    1.387592   2.428714   2.796555   2.430820   1.390949
     7  S    1.802454   2.780449   4.077878   4.590954   4.048370
     8  O    2.633418   3.244509   4.541258   5.208371   4.824455
     9  O    2.635280   3.266025   4.564721   5.221760   4.823953
    10  N    2.779006   4.083685   5.188905   5.322790   4.387912
    11  H    3.061769   4.387152   5.370555   5.358890   4.332585
    12  H    3.073053   4.407079   5.395548   5.381689   4.347374
    13  Cl   2.727173   1.724168   2.707219   4.006413   4.495211
    14  Cl   4.017438   2.724571   1.729024   2.688043   3.973878
    15  S    4.029822   4.557020   4.033194   2.738979   1.786180
    16  H    3.874461   3.406668   2.151530   1.085941   2.158844
    17  H    2.160154   3.418383   3.882447   3.409904   2.155289
    18  O    4.985357   5.186384   4.319522   2.940340   2.620764
    19  O    4.329443   5.186716   4.975891   3.843159   2.618604
    20  N    4.757373   5.293186   4.796407   3.589846   2.783379
    21  H    4.973165   5.264909   4.598606   3.440075   3.012031
    22  H    4.545742   5.265344   5.021262   3.989209   3.010638
                    6          7          8          9         10
     6  C    0.000000
     7  S    2.758343   0.000000
     8  O    3.653388   1.459223   0.000000
     9  O    3.642945   1.459252   2.526914   0.000000
    10  N    3.001731   1.628937   2.482331   2.483796   0.000000
    11  H    3.022616   2.256252   2.692324   3.399504   1.020844
    12  H    3.028629   2.257544   3.398760   2.689621   1.020760
    13  Cl   4.019256   3.191155   3.231146   3.265699   4.790754
    14  Cl   4.525368   5.496741   5.758347   5.795172   6.781098
    15  S    2.743308   5.488550   6.304158   6.281039   5.392475
    16  H    3.416151   5.676840   6.258943   6.277616   6.369263
    17  H    1.086001   2.900179   3.850835   3.831557   2.519469
    18  O    3.865623   6.599660   7.259061   7.423348   6.679058
    19  O    2.961261   5.432975   6.168442   6.388108   4.946645
    20  N    3.544046   6.099909   7.174859   6.575102   5.918611
    21  H    3.935606   6.432078   7.527581   6.767042   6.468614
    22  H    3.372838   5.658816   6.848628   6.023261   5.331697
                   11         12         13         14         15
    11  H    0.000000
    12  H    1.706806   0.000000
    13  Cl   5.236950   5.256098   0.000000
    14  Cl   6.997700   7.028779   3.143189   0.000000
    15  S    5.166681   5.163591   6.281074   5.413838   0.000000
    16  H    6.359744   6.386646   4.858743   2.820597   2.883286
    17  H    2.397738   2.392301   4.887231   5.611115   2.873928
    18  O    6.402208   6.543957   6.860828   5.340294   1.459124
    19  O    4.514636   4.731340   6.867692   6.503166   1.459543
    20  N    5.898549   5.421717   6.955404   6.090674   1.643435
    21  H    6.552627   5.981803   6.858647   5.681146   2.242098
    22  H    5.404095   4.708827   6.863531   6.438360   2.241698
                   16         17         18         19         20
    16  H    0.000000
    17  H    4.306983   0.000000
    18  O    2.556986   4.193619   0.000000
    19  O    4.174604   2.585596   2.532171   0.000000
    20  N    3.651560   3.555969   2.491179   2.489048   0.000000
    21  H    3.325841   4.175646   2.689408   3.389392   1.022077
    22  H    4.279533   3.189564   3.390823   2.685005   1.022250
                   21         22
    21  H    0.000000
    22  H    1.686992   0.000000
 Stoichiometry    C6H6Cl2N2O4S2
 Framework group  C1[X(C6H6Cl2N2O4S2)]
 Deg. of freedom    60
 Full point group                 C1      NOp   1
 Largest Abelian subgroup         C1      NOp   1
 Largest concise Abelian subgroup C1      NOp   1
                         Standard orientation:                         
 ---------------------------------------------------------------------
 Center     Atomic      Atomic             Coordinates (Angstroms)
 Number     Number       Type             X           Y           Z
 ---------------------------------------------------------------------
      1          6           0        0.864374   -0.433330   -0.018355
      2          6           0        1.148922    0.939647    0.004817
      3          6           0        0.090220    1.852601   -0.024399
      4          6           0       -1.228376    1.408818   -0.071971
      5          6           0       -1.472019    0.044933   -0.090524
      6          6           0       -0.444404   -0.892095   -0.063596
      7         16           0        2.212836   -1.629199    0.001300
      8          8           0        2.973990   -1.442024   -1.229530
      9          8           0        2.878504   -1.512274    1.294602
     10          7           0        1.564850   -3.122181   -0.066190
     11          1           0        1.089880   -3.343656   -0.942246
     12          1           0        1.038263   -3.400342    0.762837
     13         17           0        2.774361    1.511507    0.065503
     14         17           0        0.387853    3.555733   -0.007692
     15         16           0       -3.163172   -0.529435   -0.113811
     16          1           0       -2.042340    2.127052   -0.101483
     17          1           0       -0.667662   -1.954634   -0.087371
     18          8           0       -3.981409    0.553129   -0.650082
     19          8           0       -3.163169   -1.840928   -0.754321
     20          7           0       -3.652640   -0.766720    1.436993
     21          1           0       -3.658077    0.098629    1.980850
     22          1           0       -3.113419   -1.496358    1.908018
 ---------------------------------------------------------------------
 Rotational constants (GHZ):           0.4530848           0.2707419           0.1823884
 General basis read from cards:  (6D, 7F)
 There are   332 symmetry adapted cartesian basis functions of A   symmetry.
 There are   332 symmetry adapted basis functions of A   symmetry.
   332 basis functions,   632 primitive gaussians,   332 cartesian basis functions
    77 alpha electrons       77 beta electrons
       nuclear repulsion energy      1731.3605072751 Hartrees.
 NAtoms=   22 NActive=   22 NUniq=   22 SFac= 1.00D+00 NAtFMM=   60 NAOKFM=F Big=F
 Integral buffers will be    131072 words long.
 Raffenetti 2 integral format.
 Two-electron integral symmetry is turned on.
 One-electron integrals computed using PRISM.
 NBasis=   332 RedAO= T EigKep=  1.08D-06  NBF=   332
 NBsUse=   330 1.00D-06 EigRej=  8.98D-07 NBFU=   330
 ExpMin= 4.05D-02 ExpMax= 2.52D+04 ExpMxC= 3.78D+03 IAcc=3 IRadAn=         5 AccDes= 0.00D+00
 Harris functional with IExCor= 1009 and IRadAn=       5 diagonalized for initial guess.
 HarFok:  IExCor= 1009 AccDes= 0.00D+00 IRadAn=         5 IDoV= 1 UseB2=F ITyADJ=14
 ICtDFT=  3500011 ScaDFX=  1.000000  1.000000  1.000000  1.000000
 FoFCou: FMM=F IPFlag=           0 FMFlag=      100000 FMFlg1=           0
         NFxFlg=           0 DoJE=T BraDBF=F KetDBF=T FulRan=T
         wScrn=  0.000000 ICntrl=       500 IOpCl=  0 I1Cent=   200000004 NGrid=           0
         NMat0=    1 NMatS0=      1 NMatT0=    0 NMatD0=    1 NMtDS0=    0 NMtDT0=    0
 Petite list used in FoFCou.
 Requested convergence on RMS density matrix=1.00D-08 within 128 cycles.
 Requested convergence on MAX density matrix=1.00D-06.
 Requested convergence on             energy=1.00D-06.
 No special actions if energy rises.
 SCF Done:  E(RM062X) =  -2358.90459603     A.U. after   17 cycles
            NFock= 17  Conv=0.52D-08     -V/T= 2.0045

 **********************************************************************

            Population analysis using the SCF Density.

 **********************************************************************

 Orbital symmetries:
       Occupied  (A) (A) (A) (A) (A) (A) (A) (A) (A) (A) (A) (A)
                 (A) (A) (A) (A) (A) (A) (A) (A) (A) (A) (A) (A)
                 (A) (A) (A) (A) (A) (A) (A) (A) (A) (A) (A) (A)
                 (A) (A) (A) (A) (A) (A) (A) (A) (A) (A) (A) (A)
                 (A) (A) (A) (A) (A) (A) (A) (A) (A) (A) (A) (A)
                 (A) (A) (A) (A) (A) (A) (A) (A) (A) (A) (A) (A)
                 (A) (A) (A) (A) (A)
       Virtual   (A) (A) (A) (A) (A) (A) (A) (A) (A) (A) (A) (A)
                 (A) (A) (A) (A) (A) (A) (A) (A) (A) (A) (A) (A)
                 (A) (A) (A) (A) (A) (A) (A) (A) (A) (A) (A) (A)
                 (A) (A) (A) (A) (A) (A) (A) (A) (A) (A) (A) (A)
                 (A) (A) (A) (A) (A) (A) (A) (A) (A) (A) (A) (A)
                 (A) (A) (A) (A) (A) (A) (A) (A) (A) (A) (A) (A)
                 (A) (A) (A) (A) (A) (A) (A) (A) (A) (A) (A) (A)
                 (A) (A) (A) (A) (A) (A) (A) (A) (A) (A) (A) (A)
                 (A) (A) (A) (A) (A) (A) (A) (A) (A) (A) (A) (A)
                 (A) (A) (A) (A) (A) (A) (A) (A) (A) (A) (A) (A)
                 (A) (A) (A) (A) (A) (A) (A) (A) (A) (A) (A) (A)
                 (A) (A) (A) (A) (A) (A) (A) (A) (A) (A) (A) (A)
                 (A) (A) (A) (A) (A) (A) (A) (A) (A) (A) (A) (A)
                 (A) (A) (A) (A) (A) (A) (A) (A) (A) (A) (A) (A)
                 (A) (A) (A) (A) (A) (A) (A) (A) (A) (A) (A) (A)
                 (A) (A) (A) (A) (A) (A) (A) (A) (A) (A) (A) (A)
                 (A) (A) (A) (A) (A) (A) (A) (A) (A) (A) (A) (A)
                 (A) (A) (A) (A) (A) (A) (A) (A) (A) (A) (A) (A)
                 (A) (A) (A) (A) (A) (A) (A) (A) (A) (A) (A) (A)
                 (A) (A) (A) (A) (A) (A) (A) (A) (A) (A) (A) (A)
                 (A) (A) (A) (A) (A) (A) (A) (A) (A) (A) (A) (A)
                 (A)
 The electronic state is 1-A.
 Alpha  occ. eigenvalues -- -102.71185-102.70881 -90.19820 -90.19635 -19.67092
 Alpha  occ. eigenvalues --  -19.66965 -19.66333 -19.66227 -14.83832 -14.83815
 Alpha  occ. eigenvalues --  -10.68425 -10.67697 -10.64856 -10.64208 -10.63557
 Alpha  occ. eigenvalues --  -10.63074  -9.85818  -9.85488  -8.50770  -8.50509
 Alpha  occ. eigenvalues --   -7.58243  -7.57925  -7.57547  -7.57510  -7.57212
 Alpha  occ. eigenvalues --   -7.57160  -6.42986  -6.42924  -6.42865  -6.42751
 Alpha  occ. eigenvalues --   -6.42644  -6.42614  -1.27335  -1.26767  -1.15544
 Alpha  occ. eigenvalues --   -1.14686  -1.07448  -1.06553  -1.06403  -1.00064
 Alpha  occ. eigenvalues --   -0.99879  -0.91920  -0.88725  -0.80624  -0.79553
 Alpha  occ. eigenvalues --   -0.74145  -0.72467  -0.68237  -0.65519  -0.65244
 Alpha  occ. eigenvalues --   -0.63790  -0.62569  -0.62260  -0.59286  -0.58585
 Alpha  occ. eigenvalues --   -0.56177  -0.55277  -0.54852  -0.53646  -0.51531
 Alpha  occ. eigenvalues --   -0.50453  -0.46441  -0.45683  -0.44620  -0.44572
 Alpha  occ. eigenvalues --   -0.43281  -0.42481  -0.42228  -0.41907  -0.41831
 Alpha  occ. eigenvalues --   -0.41548  -0.40713  -0.40099  -0.39554  -0.38981
 Alpha  occ. eigenvalues --   -0.36104  -0.34415
 Alpha virt. eigenvalues --   -0.06342  -0.05257  -0.02854  -0.00706  -0.00076
 Alpha virt. eigenvalues --    0.01395   0.02862   0.03189   0.03893   0.04121
 Alpha virt. eigenvalues --    0.04814   0.05095   0.05956   0.06168   0.06440
 Alpha virt. eigenvalues --    0.07095   0.07396   0.07921   0.08366   0.08627
 Alpha virt. eigenvalues --    0.09032   0.09635   0.09910   0.10227   0.10580
 Alpha virt. eigenvalues --    0.11306   0.11654   0.11785   0.12296   0.13041
 Alpha virt. eigenvalues --    0.13259   0.13699   0.13973   0.14389   0.15172
 Alpha virt. eigenvalues --    0.15467   0.16303   0.16351   0.16677   0.17262
 Alpha virt. eigenvalues --    0.17698   0.18179   0.18992   0.19067   0.19546
 Alpha virt. eigenvalues --    0.19888   0.20751   0.21247   0.21372   0.22301
 Alpha virt. eigenvalues --    0.23176   0.23266   0.23547   0.23863   0.24375
 Alpha virt. eigenvalues --    0.24594   0.25346   0.25672   0.26889   0.27500
 Alpha virt. eigenvalues --    0.27697   0.28501   0.29216   0.29571   0.30303
 Alpha virt. eigenvalues --    0.30662   0.30876   0.31265   0.31849   0.32195
 Alpha virt. eigenvalues --    0.32972   0.33232   0.33764   0.34331   0.35046
 Alpha virt. eigenvalues --    0.35628   0.36662   0.37410   0.37540   0.38595
 Alpha virt. eigenvalues --    0.41172   0.42604   0.43081   0.44831   0.47642
 Alpha virt. eigenvalues --    0.51664   0.53074   0.53283   0.55057   0.56276
 Alpha virt. eigenvalues --    0.57122   0.58384   0.60760   0.61544   0.62918
 Alpha virt. eigenvalues --    0.63508   0.63778   0.64984   0.65234   0.66225
 Alpha virt. eigenvalues --    0.66656   0.67181   0.68450   0.69306   0.71234
 Alpha virt. eigenvalues --    0.72387   0.72789   0.74346   0.74815   0.75686
 Alpha virt. eigenvalues --    0.76946   0.77524   0.82317   0.84585   0.86226
 Alpha virt. eigenvalues --    0.86400   0.87987   0.89866   0.90336   0.91252
 Alpha virt. eigenvalues --    0.92145   0.93529   0.93695   0.94637   0.96157
 Alpha virt. eigenvalues --    0.96829   0.98037   0.99256   0.99830   1.00697
 Alpha virt. eigenvalues --    1.02555   1.03224   1.03564   1.04098   1.05307
 Alpha virt. eigenvalues --    1.07059   1.09320   1.09736   1.10547   1.11505
 Alpha virt. eigenvalues --    1.12108   1.12258   1.12803   1.14580   1.15607
 Alpha virt. eigenvalues --    1.15958   1.16095   1.18141   1.18989   1.22314
 Alpha virt. eigenvalues --    1.23102   1.24199   1.25348   1.29876   1.32442
 Alpha virt. eigenvalues --    1.32980   1.34079   1.34327   1.36531   1.37203
 Alpha virt. eigenvalues --    1.38212   1.38953   1.39436   1.39752   1.40374
 Alpha virt. eigenvalues --    1.41489   1.43579   1.44872   1.45741   1.46028
 Alpha virt. eigenvalues --    1.49162   1.51411   1.52536   1.53168   1.53953
 Alpha virt. eigenvalues --    1.55329   1.56636   1.58047   1.62144   1.68073
 Alpha virt. eigenvalues --    1.70332   1.74494   1.75746   1.77883   1.78643
 Alpha virt. eigenvalues --    1.79749   1.81511   1.83090   1.84446   1.84796
 Alpha virt. eigenvalues --    1.85283   1.85775   1.88185   1.90239   1.92610
 Alpha virt. eigenvalues --    1.94399   1.96819   1.97045   1.99457   1.99731
 Alpha virt. eigenvalues --    2.01010   2.01890   2.10416   2.10645   2.11308
 Alpha virt. eigenvalues --    2.11371   2.13457   2.14956   2.15414   2.16367
 Alpha virt. eigenvalues --    2.17286   2.19046   2.21402   2.22434   2.25334
 Alpha virt. eigenvalues --    2.26166   2.30483   2.33265   2.38150   2.42587
 Alpha virt. eigenvalues --    2.45187   2.45979   2.47327   2.54752   2.56237
 Alpha virt. eigenvalues --    2.58583   2.66110   2.69965   2.74244   2.78202
 Alpha virt. eigenvalues --    2.84745   2.90222   2.91713   2.92318   2.94123
 Alpha virt. eigenvalues --    3.04207   3.25555   3.86110   3.93284   4.03603
 Alpha virt. eigenvalues --    4.06088   4.11922   4.19843   4.22966   4.27056
 Alpha virt. eigenvalues --    4.27339   4.29312   4.35026   4.38451   4.42678
 Alpha virt. eigenvalues --    4.45115   4.49356   4.64792
          Condensed to atoms (all electrons):
               1          2          3          4          5          6
     1  C   51.268275   3.297849   2.912245 -11.530135 -15.011995 -21.205299
     2  C    3.297849  43.100390 -17.291895   3.621950   1.198187 -26.442099
     3  C    2.912245 -17.291895  28.219123 -14.437788  -2.247913   8.244269
     4  C  -11.530135   3.621950 -14.437788  40.760784  -7.601956  -6.461192
     5  C  -15.011995   1.198187  -2.247913  -7.601956  35.176724  -3.022462
     6  C  -21.205299 -26.442099   8.244269  -6.461192  -3.022462  54.916280
     7  S   -0.798214  -1.412811   1.170527  -0.592448  -1.670107   1.882813
     8  O    0.028325  -0.203721   0.133773  -0.027062  -0.122146   0.118785
     9  O    0.152986  -0.309941   0.182112  -0.036782  -0.164879   0.140538
    10  N    0.518508   0.734093  -0.250315   0.134743   0.449429  -1.355045
    11  H   -0.095362  -0.033668   0.005961  -0.002421  -0.043552   0.115019
    12  H   -0.132851  -0.025663   0.002454   0.001759  -0.009926   0.130250
    13  Cl   0.230622  -1.071859   0.303034   0.126671  -0.266871   0.340383
    14  Cl  -0.079900   0.014991   0.135140  -0.238934   0.081714  -0.078790
    15  S   -2.958092   0.710477  -1.450599   3.235581   1.193634  -2.804939
    16  H    0.036776  -0.036882   0.014427   0.268877   0.011193   0.027910
    17  H   -0.051401   0.039133  -0.056574   0.083957   0.047084   0.239109
    18  O    0.112581   0.125243  -0.108596  -0.414919  -0.081842   0.135449
    19  O   -0.283272  -0.016795   0.083147   0.246888   0.090277  -0.331405
    20  N    0.937984  -0.065416   0.343104  -0.466711  -1.323361   1.127851
    21  H   -0.013638  -0.000757  -0.023791  -0.067362   0.093108  -0.035959
    22  H   -0.067643   0.002667  -0.006882   0.080180   0.036951  -0.098055
               7          8          9         10         11         12
     1  C   -0.798214   0.028325   0.152986   0.518508  -0.095362  -0.132851
     2  C   -1.412811  -0.203721  -0.309941   0.734093  -0.033668  -0.025663
     3  C    1.170527   0.133773   0.182112  -0.250315   0.005961   0.002454
     4  C   -0.592448  -0.027062  -0.036782   0.134743  -0.002421   0.001759
     5  C   -1.670107  -0.122146  -0.164879   0.449429  -0.043552  -0.009926
     6  C    1.882813   0.118785   0.140538  -1.355045   0.115019   0.130250
     7  S   15.932892   0.378213   0.365769  -0.641177   0.085020   0.071298
     8  O    0.378213   8.561917  -0.235184  -0.160906  -0.000812   0.009354
     9  O    0.365769  -0.235184   8.528052  -0.157880   0.009752  -0.001353
    10  N   -0.641177  -0.160906  -0.157880   8.477784   0.200005   0.195884
    11  H    0.085020  -0.000812   0.009752   0.200005   0.307821  -0.021479
    12  H    0.071298   0.009354  -0.001353   0.195884  -0.021479   0.317208
    13  Cl   0.116298  -0.035047  -0.028631  -0.054339   0.001269   0.001134
    14  Cl  -0.008799  -0.000046  -0.000828   0.002887  -0.000048  -0.000047
    15  S   -0.284368  -0.007061  -0.007528   0.028646  -0.002539  -0.002837
    16  H    0.002587   0.000010   0.000009   0.000012   0.000000   0.000000
    17  H   -0.037874  -0.000989  -0.000847  -0.002400  -0.000510  -0.000497
    18  O   -0.010319  -0.000083  -0.000074   0.000117  -0.000005  -0.000003
    19  O    0.001611   0.000201   0.000096  -0.003906  -0.000036   0.000071
    20  N    0.031234   0.000119  -0.000097   0.001947  -0.000031   0.000112
    21  H   -0.000832  -0.000000  -0.000001  -0.000015  -0.000000  -0.000000
    22  H   -0.001803  -0.000000  -0.000001  -0.000031   0.000000  -0.000002
              13         14         15         16         17         18
     1  C    0.230622  -0.079900  -2.958092   0.036776  -0.051401   0.112581
     2  C   -1.071859   0.014991   0.710477  -0.036882   0.039133   0.125243
     3  C    0.303034   0.135140  -1.450599   0.014427  -0.056574  -0.108596
     4  C    0.126671  -0.238934   3.235581   0.268877   0.083957  -0.414919
     5  C   -0.266871   0.081714   1.193634   0.011193   0.047084  -0.081842
     6  C    0.340383  -0.078790  -2.804939   0.027910   0.239109   0.135449
     7  S    0.116298  -0.008799  -0.284368   0.002587  -0.037874  -0.010319
     8  O   -0.035047  -0.000046  -0.007061   0.000010  -0.000989  -0.000083
     9  O   -0.028631  -0.000828  -0.007528   0.000009  -0.000847  -0.000074
    10  N   -0.054339   0.002887   0.028646   0.000012  -0.002400   0.000117
    11  H    0.001269  -0.000048  -0.002539   0.000000  -0.000510  -0.000005
    12  H    0.001134  -0.000047  -0.002837   0.000000  -0.000497  -0.000003
    13  Cl  16.976038  -0.021164  -0.037848   0.001076  -0.000252  -0.000755
    14  Cl  -0.021164  16.876049   0.012248  -0.000005   0.000214  -0.001383
    15  S   -0.037848   0.012248  17.044796  -0.020707   0.026490   0.352561
    16  H    0.001076  -0.000005  -0.020707   0.401718  -0.000118  -0.000186
    17  H   -0.000252   0.000214   0.026490  -0.000118   0.451281   0.001534
    18  O   -0.000755  -0.001383   0.352561  -0.000186   0.001534   8.709449
    19  O   -0.000286   0.000075   0.367724   0.000924   0.000550  -0.169262
    20  N    0.002400  -0.000274  -1.183982   0.000611   0.001990  -0.142540
    21  H   -0.000042  -0.000007   0.099507  -0.000027   0.000021  -0.005431
    22  H   -0.000072   0.000036   0.102156   0.000007  -0.000112   0.010055
              19         20         21         22
     1  C   -0.283272   0.937984  -0.013638  -0.067643
     2  C   -0.016795  -0.065416  -0.000757   0.002667
     3  C    0.083147   0.343104  -0.023791  -0.006882
     4  C    0.246888  -0.466711  -0.067362   0.080180
     5  C    0.090277  -1.323361   0.093108   0.036951
     6  C   -0.331405   1.127851  -0.035959  -0.098055
     7  S    0.001611   0.031234  -0.000832  -0.001803
     8  O    0.000201   0.000119  -0.000000  -0.000000
     9  O    0.000096  -0.000097  -0.000001  -0.000001
    10  N   -0.003906   0.001947  -0.000015  -0.000031
    11  H   -0.000036  -0.000031  -0.000000   0.000000
    12  H    0.000071   0.000112  -0.000000  -0.000002
    13  Cl  -0.000286   0.002400  -0.000042  -0.000072
    14  Cl   0.000075  -0.000274  -0.000007   0.000036
    15  S    0.367724  -1.183982   0.099507   0.102156
    16  H    0.000924   0.000611  -0.000027   0.000007
    17  H    0.000550   0.001990   0.000021  -0.000112
    18  O   -0.169262  -0.142540  -0.005431   0.010055
    19  O    8.698363  -0.147088   0.008971  -0.005583
    20  N   -0.147088   8.403334   0.202600   0.202449
    21  H    0.008971   0.202600   0.311059  -0.020029
    22  H   -0.005583   0.202449  -0.020029   0.318148
 Mulliken charges:
               1
     1  C   -1.268351
     2  C    0.066528
     3  C    0.125037
     4  C   -0.683679
     5  C   -0.811291
     6  C    0.416588
     7  S    1.420489
     8  O   -0.437638
     9  O   -0.435286
    10  N   -1.118041
    11  H    0.475618
    12  H    0.465132
    13  Cl   0.418239
    14  Cl   0.306872
    15  S    1.586681
    16  H    0.291789
    17  H    0.260211
    18  O   -0.511590
    19  O   -0.541264
    20  N   -0.926235
    21  H    0.452625
    22  H    0.447566
 Sum of Mulliken charges =  -0.00000
 Mulliken charges with hydrogens summed into heavy atoms:
               1
     1  C   -1.268351
     2  C    0.066528
     3  C    0.125037
     4  C   -0.391890
     5  C   -0.811291
     6  C    0.676798
     7  S    1.420489
     8  O   -0.437638
     9  O   -0.435286
    10  N   -0.177292
    13  Cl   0.418239
    14  Cl   0.306872
    15  S    1.586681
    18  O   -0.511590
    19  O   -0.541264
    20  N   -0.026044
 Electronic spatial extent (au):  <R**2>=           5516.1742
 Charge=             -0.0000 electrons
 Dipole moment (field-independent basis, Debye):
    X=             -2.3804    Y=             -0.3992    Z=              3.8385  Tot=              4.5343
 Quadrupole moment (field-independent basis, Debye-Ang):
   XX=           -156.3979   YY=           -111.2634   ZZ=           -120.3204
   XY=              3.3529   XZ=            -14.3938   YZ=             -2.1981
 Traceless Quadrupole moment (field-independent basis, Debye-Ang):
   XX=            -27.0707   YY=             18.0638   ZZ=              9.0068
   XY=              3.3529   XZ=            -14.3938   YZ=             -2.1981
 Octapole moment (field-independent basis, Debye-Ang**2):
  XXX=             44.9830  YYY=            -27.7960  ZZZ=             12.5896  XYY=              2.1206
  XXY=             54.1931  XXZ=             44.8821  XZZ=            -27.5526  YZZ=             -3.9330
  YYZ=              6.9361  XYZ=              7.2424
 Hexadecapole moment (field-independent basis, Debye-Ang**3):
 XXXX=          -4725.7537 YYYY=          -2269.2710 ZZZZ=           -352.2423 XXXY=             78.7365
 XXXZ=           -126.9339 YYYX=              3.3663 YYYZ=            -12.7697 ZZZX=            -46.7686
 ZZZY=             -3.8846 XXYY=          -1195.2873 XXZZ=           -767.9105 YYZZ=           -454.7832
 XXYZ=             -2.0921 YYXZ=            -29.4267 ZZXY=             20.9324
 N-N= 1.731360507275D+03 E-N=-9.037105736947D+03  KE= 2.348288304613D+03
 Calling FoFJK, ICntrl=      2127 FMM=F ISym2X=0 I1Cent= 0 IOpClX= 0 NMat=1 NMatS=1 NMatT=0.
 ***** Axes restored to original set *****
 -------------------------------------------------------------------
 Center     Atomic                   Forces (Hartrees/Bohr)
 Number     Number              X              Y              Z
 -------------------------------------------------------------------
      1        6           0.003983095   -0.000269705    0.000950902
      2        6          -0.004429136    0.003560104    0.003240370
      3        6          -0.002611259   -0.000893226   -0.002193416
      4        6          -0.000595319    0.000105093    0.000899569
      5        6           0.002160284   -0.003567483    0.000932417
      6        6          -0.003499713   -0.000713312   -0.001201303
      7       16          -0.034543479    0.017681563    0.011925421
      8        8           0.008279030   -0.012509108   -0.001437635
      9        8           0.010439706   -0.001097611   -0.009612615
     10        7           0.017058694   -0.006672531   -0.003687264
     11        1          -0.002087458    0.001018795    0.003578219
     12        1          -0.001814105    0.004259374    0.001540380
     13       17           0.003387801   -0.001440910   -0.000957853
     14       17           0.001648471   -0.000120355    0.000518494
     15       16           0.015803770    0.016560909   -0.026315176
     16        1           0.001363795    0.000697886   -0.000462953
     17        1          -0.000024509   -0.000404004   -0.002727967
     18        8          -0.003778971   -0.001536019    0.012795291
     19        8          -0.009509117   -0.005611324    0.005787588
     20        7          -0.006173290   -0.008738411    0.011082461
     21        1           0.003546124    0.000809869   -0.000902854
     22        1           0.001395588   -0.001119595   -0.003752079
 -------------------------------------------------------------------
 Cartesian Forces:  Max     0.034543479 RMS     0.008186408

 GradGradGradGradGradGradGradGradGradGradGradGradGradGradGradGradGradGrad
 Berny optimization.
 FormGI is forming the generalized inverse of G from B-inverse, IUseBI=4.
 Internal  Forces:  Max     0.013218786 RMS     0.003552680
 Search for a local minimum.
 Step number   1 out of a maximum of  116
 All quantities printed in internal units (Hartrees-Bohrs-Radians)
 Mixed Optimization -- RFO/linear search
 Second derivative matrix not updated -- first step.
 ITU=  0
     Eigenvalues ---    0.00338   0.00553   0.01438   0.01594   0.02044
     Eigenvalues ---    0.02083   0.02117   0.02152   0.02196   0.02227
     Eigenvalues ---    0.02234   0.02236   0.02250   0.03904   0.04471
     Eigenvalues ---    0.09570   0.09598   0.10476   0.10512   0.14097
     Eigenvalues ---    0.14149   0.15999   0.15999   0.16000   0.16000
     Eigenvalues ---    0.16000   0.16000   0.19710   0.19754   0.23490
     Eigenvalues ---    0.23502   0.24993   0.24999   0.25000   0.25000
     Eigenvalues ---    0.25000   0.25000   0.25000   0.25924   0.27236
     Eigenvalues ---    0.32612   0.33132   0.35279   0.35286   0.42382
     Eigenvalues ---    0.42816   0.43659   0.43981   0.44008   0.44204
     Eigenvalues ---    0.44217   0.45989   0.46006   0.46672   0.47342
     Eigenvalues ---    0.47775   0.91801   0.91924   0.91936   0.91978
 RFO step:  Lambda=-5.52500197D-03 EMin= 3.37845134D-03
 Linear search not attempted -- first point.
 Iteration  1 RMS(Cart)=  0.04910200 RMS(Int)=  0.00133590
 Iteration  2 RMS(Cart)=  0.00158638 RMS(Int)=  0.00023311
 Iteration  3 RMS(Cart)=  0.00000142 RMS(Int)=  0.00023311
 Iteration  4 RMS(Cart)=  0.00000000 RMS(Int)=  0.00023311
 Variable       Old X    -DE/DX   Delta X   Delta X   Delta X     New X
                                 (Linear)    (Quad)   (Total)
    R1        2.65005   0.00088   0.00000   0.00216   0.00216   2.65221
    R2        2.62217   0.00185   0.00000   0.00368   0.00369   2.62586
    R3        3.40614   0.00316   0.00000   0.01192   0.01192   3.41806
    R4        2.64237   0.00326   0.00000   0.00742   0.00741   2.64978
    R5        3.25821  -0.00375   0.00000  -0.01114  -0.01114   3.24707
    R6        2.63066   0.00175   0.00000   0.00384   0.00383   2.63449
    R7        3.26738  -0.00168   0.00000  -0.00505  -0.00505   3.26233
    R8        2.61840  -0.00049   0.00000  -0.00123  -0.00124   2.61717
    R9        2.05213  -0.00014   0.00000  -0.00038  -0.00038   2.05175
   R10        2.62851  -0.00036   0.00000  -0.00113  -0.00112   2.62739
   R11        3.37539   0.00134   0.00000   0.00482   0.00482   3.38021
   R12        2.05224  -0.00122   0.00000  -0.00340  -0.00340   2.04884
   R13        2.75753  -0.01322   0.00000  -0.01429  -0.01429   2.74324
   R14        2.75759  -0.01189   0.00000  -0.01286  -0.01286   2.74473
   R15        3.07824   0.01307   0.00000   0.02807   0.02807   3.10632
   R16        1.92912  -0.00315   0.00000  -0.00705  -0.00705   1.92207
   R17        1.92896  -0.00384   0.00000  -0.00858  -0.00858   1.92037
   R18        2.75734  -0.01123   0.00000  -0.01214  -0.01214   2.74520
   R19        2.75814  -0.00923   0.00000  -0.00999  -0.00999   2.74815
   R20        3.10564   0.01084   0.00000   0.02451   0.02451   3.13015
   R21        1.93145  -0.00309   0.00000  -0.00695  -0.00695   1.92450
   R22        1.93177  -0.00355   0.00000  -0.00798  -0.00798   1.92379
    A1        2.11253  -0.00187   0.00000  -0.00750  -0.00749   2.10504
    A2        2.09162  -0.00263   0.00000  -0.01023  -0.01024   2.08138
    A3        2.07903   0.00450   0.00000   0.01770   0.01769   2.09672
    A4        2.07746  -0.00050   0.00000  -0.00109  -0.00112   2.07634
    A5        2.11367  -0.00077   0.00000  -0.00347  -0.00348   2.11019
    A6        2.09205   0.00127   0.00000   0.00453   0.00452   2.09657
    A7        2.10569   0.00015   0.00000   0.00130   0.00127   2.10695
    A8        2.10900   0.00062   0.00000   0.00207   0.00208   2.11109
    A9        2.06849  -0.00077   0.00000  -0.00338  -0.00336   2.06513
   A10        2.07237   0.00072   0.00000   0.00265   0.00261   2.07499
   A11        2.09447   0.00085   0.00000   0.00598   0.00598   2.10045
   A12        2.11632  -0.00158   0.00000  -0.00870  -0.00870   2.10762
   A13        2.13286  -0.00169   0.00000  -0.00794  -0.00799   2.12487
   A14        2.07508   0.00169   0.00000   0.00745   0.00739   2.08247
   A15        2.07500   0.00001   0.00000   0.00090   0.00084   2.07584
   A16        2.06545   0.00318   0.00000   0.01254   0.01250   2.07796
   A17        2.11542   0.00060   0.00000   0.00689   0.00683   2.12224
   A18        2.10227  -0.00379   0.00000  -0.01961  -0.01967   2.08260
   A19        1.87123  -0.00144   0.00000  -0.00855  -0.00889   1.86234
   A20        1.87316  -0.00182   0.00000  -0.01118  -0.01155   1.86161
   A21        1.88603  -0.00093   0.00000  -0.02024  -0.02064   1.86539
   A22        2.09363   0.00719   0.00000   0.06111   0.06122   2.15485
   A23        1.86514  -0.00183   0.00000  -0.01383  -0.01409   1.85105
   A24        1.86672  -0.00177   0.00000  -0.01435  -0.01466   1.85206
   A25        2.00367   0.00098   0.00000   0.01765   0.01681   2.02049
   A26        2.00570   0.00104   0.00000   0.01799   0.01715   2.02285
   A27        1.97995   0.00060   0.00000   0.02027   0.01916   1.99911
   A28        1.87251  -0.00105   0.00000  -0.00718  -0.00756   1.86494
   A29        1.86990  -0.00218   0.00000  -0.01427  -0.01472   1.85518
   A30        1.89243  -0.00198   0.00000  -0.02538  -0.02587   1.86656
   A31        2.10062   0.00743   0.00000   0.06436   0.06448   2.16511
   A32        1.86181  -0.00168   0.00000  -0.01288  -0.01319   1.84862
   A33        1.85915  -0.00128   0.00000  -0.01257  -0.01302   1.84613
   A34        1.96217   0.00091   0.00000   0.01383   0.01343   1.97560
   A35        1.96141   0.00163   0.00000   0.01818   0.01778   1.97919
   A36        1.94114   0.00020   0.00000   0.01504   0.01443   1.95556
    D1       -0.00496  -0.00034   0.00000  -0.01240  -0.01244  -0.01740
    D2        3.13856  -0.00004   0.00000  -0.00075  -0.00077   3.13780
    D3        3.13057  -0.00041   0.00000  -0.01706  -0.01706   3.11351
    D4       -0.00909  -0.00011   0.00000  -0.00540  -0.00539  -0.01448
    D5        0.00408   0.00008   0.00000   0.00194   0.00195   0.00603
    D6        3.13541  -0.00049   0.00000  -0.01798  -0.01811   3.11730
    D7       -3.13150   0.00018   0.00000   0.00666   0.00671  -3.12479
    D8       -0.00017  -0.00039   0.00000  -0.01327  -0.01335  -0.01352
    D9       -1.11496  -0.00303   0.00000   0.00308   0.00319  -1.11177
   D10        1.15585   0.00373   0.00000   0.06581   0.06571   1.22156
   D11       -3.11975   0.00029   0.00000   0.03341   0.03345  -3.08630
   D12        2.02069  -0.00312   0.00000  -0.00158  -0.00150   2.01919
   D13       -1.99169   0.00363   0.00000   0.06116   0.06102  -1.93067
   D14        0.01590   0.00019   0.00000   0.02876   0.02877   0.04467
   D15        0.00316   0.00019   0.00000   0.00720   0.00727   0.01042
   D16       -3.13482   0.00027   0.00000   0.01044   0.01052  -3.12430
   D17       -3.14034  -0.00011   0.00000  -0.00431  -0.00432   3.13852
   D18        0.00486  -0.00002   0.00000  -0.00108  -0.00107   0.00380
   D19       -0.00057   0.00021   0.00000   0.00829   0.00834   0.00777
   D20       -3.13398   0.00046   0.00000   0.01710   0.01716  -3.11682
   D21        3.13749   0.00014   0.00000   0.00514   0.00519  -3.14051
   D22        0.00408   0.00039   0.00000   0.01395   0.01400   0.01808
   D23       -0.00032  -0.00049   0.00000  -0.01942  -0.01941  -0.01972
   D24        3.11746  -0.00006   0.00000   0.00070   0.00066   3.11812
   D25        3.13298  -0.00073   0.00000  -0.02827  -0.02819   3.10479
   D26       -0.03243  -0.00030   0.00000  -0.00815  -0.00812  -0.04055
   D27       -0.00142   0.00034   0.00000   0.01431   0.01431   0.01290
   D28       -3.13283   0.00088   0.00000   0.03392   0.03375  -3.09908
   D29       -3.11919  -0.00011   0.00000  -0.00589  -0.00577  -3.12496
   D30        0.03258   0.00043   0.00000   0.01372   0.01367   0.04625
   D31        0.39886  -0.00320   0.00000   0.00464   0.00473   0.40359
   D32        2.67704   0.00387   0.00000   0.07029   0.07008   2.74712
   D33       -1.60586   0.00029   0.00000   0.03595   0.03598  -1.56988
   D34       -2.76575  -0.00281   0.00000   0.02396   0.02411  -2.74165
   D35       -0.48757   0.00426   0.00000   0.08961   0.08946  -0.39811
   D36        1.51272   0.00068   0.00000   0.05526   0.05535   1.56807
   D37        1.16137   0.00168   0.00000   0.03520   0.03541   1.19679
   D38       -1.18192  -0.00147   0.00000  -0.03550  -0.03573  -1.21765
   D39       -0.84741   0.00473   0.00000   0.06193   0.06199  -0.78542
   D40        3.09248   0.00158   0.00000  -0.00878  -0.00915   3.08333
   D41       -3.10999  -0.00179   0.00000   0.00504   0.00542  -3.10457
   D42        0.82991  -0.00494   0.00000  -0.06566  -0.06572   0.76418
   D43        1.10391   0.00155   0.00000   0.02653   0.02667   1.13058
   D44       -1.10211  -0.00079   0.00000  -0.01997  -0.02012  -1.12222
   D45       -0.90779   0.00460   0.00000   0.05383   0.05380  -0.85399
   D46       -3.11381   0.00226   0.00000   0.00734   0.00702  -3.10679
   D47        3.11124  -0.00259   0.00000  -0.00863  -0.00830   3.10294
   D48        0.90522  -0.00493   0.00000  -0.05512  -0.05508   0.85014
         Item               Value     Threshold  Converged?
 Maximum Force            0.013219     0.000450     NO 
 RMS     Force            0.003553     0.000300     NO 
 Maximum Displacement     0.224354     0.001800     NO 
 RMS     Displacement     0.049357     0.001200     NO 
 Predicted change in Energy=-2.938840D-03
 GradGradGradGradGradGradGradGradGradGradGradGradGradGradGradGradGradGrad

                          Input orientation:                          
 ---------------------------------------------------------------------
 Center     Atomic      Atomic             Coordinates (Angstroms)
 Number     Number       Type             X           Y           Z
 ---------------------------------------------------------------------
      1          6           0       -1.562517    1.076126   -1.118878
      2          6           0       -2.821928    0.913977   -1.716687
      3          6           0       -2.928990    0.126167   -2.871704
      4          6           0       -1.806923   -0.498487   -3.414222
      5          6           0       -0.582445   -0.336240   -2.787800
      6          6           0       -0.441467    0.449668   -1.649574
      7         16           0       -1.407893    2.126139    0.345764
      8          8           0       -1.756732    3.473196   -0.067836
      9          8           0       -2.069567    1.425321    1.432342
     10          7           0        0.188387    2.169269    0.735736
     11          1           0        0.790233    2.663122    0.081202
     12          1           0        0.579968    1.304980    1.099560
     13         17           0       -4.214132    1.680605   -1.063605
     14         17           0       -4.448191   -0.087205   -3.663400
     15         16           0        0.858015   -1.161943   -3.453264
     16          1           0       -1.892527   -1.088349   -4.321728
     17          1           0        0.542571    0.581646   -1.213977
     18          8           0        0.582347   -1.425532   -4.855000
     19          8           0        2.012162   -0.416625   -2.976497
     20          7           0        0.945770   -2.645021   -2.720836
     21          1           0        0.162050   -3.253156   -2.951261
     22          1           0        1.105420   -2.591293   -1.716842
 ---------------------------------------------------------------------
                    Distance matrix (angstroms):
                    1          2          3          4          5
     1  C    0.000000
     2  C    1.403490   0.000000
     3  C    2.417037   1.402202   0.000000
     4  C    2.794234   2.430415   1.394113   0.000000
     5  C    2.395959   2.779498   2.393143   1.384946   0.000000
     6  C    1.389547   2.426249   2.790345   2.424346   1.390354
     7  S    1.808760   2.778945   4.082367   4.602758   4.069876
     8  O    2.624568   3.225361   4.520892   5.193754   4.825863
     9  O    2.624454   3.277790   4.577251   5.221034   4.808765
    10  N    2.774928   4.080703   5.187093   5.321686   4.391704
    11  H    3.081262   4.397683   5.384088   5.381354   4.371680
    12  H    3.092585   4.433625   5.428934   5.415161   4.376799
    13  Cl   2.720205   1.718274   2.708707   4.008553   4.497740
    14  Cl   4.019334   2.727048   1.726350   2.684686   3.971484
    15  S    4.039466   4.568055   4.042133   2.746560   1.788729
    16  H    3.879704   3.414577   2.156820   1.085741   2.152886
    17  H    2.164474   3.418043   3.873920   3.395275   2.141284
    18  O    4.981700   5.187619   4.320962   2.940045   2.610864
    19  O    4.296205   5.169724   4.971980   3.844959   2.602701
    20  N    4.764945   5.279236   4.766131   3.558892   2.769548
    21  H    5.007438   5.271934   4.580466   3.417511   3.014861
    22  H    4.574429   5.264122   4.999475   3.967703   3.013486
                    6          7          8          9         10
     6  C    0.000000
     7  S    2.779551   0.000000
     8  O    3.656985   1.451660   0.000000
     9  O    3.619504   1.452449   2.557771   0.000000
    10  N    3.007233   1.643791   2.475771   2.477312   0.000000
    11  H    3.067905   2.278179   2.676838   3.396495   1.017115
    12  H    3.054934   2.279057   3.394723   2.673062   1.016218
    13  Cl   4.011430   3.171718   3.200586   3.300618   4.781067
    14  Cl   4.516367   5.496881   5.731360   5.823416   6.778048
    15  S    2.745768   5.511663   6.307340   6.255703   5.393802
    16  H    3.407562   5.687994   6.238728   6.281656   6.365550
    17  H    1.084202   2.936419   3.868009   3.812880   2.539168
    18  O    3.852185   6.604798   7.237801   7.395314   6.658388
    19  O    2.920870   5.403688   6.147811   6.284197   4.877877
    20  N    3.556562   6.140662   7.195450   6.550483   5.974857
    21  H    3.971086   6.501684   7.565691   6.788537   6.557236
    22  H    3.412451   5.729332   6.905734   6.010914   5.433143
                   11         12         13         14         15
    11  H    0.000000
    12  H    1.710501   0.000000
    13  Cl   5.226814   5.272928   0.000000
    14  Cl   7.001959   7.064443   3.152598   0.000000
    15  S    5.208470   5.185675   6.286273   5.418029   0.000000
    16  H    6.376247   6.421185   4.865421   2.822606   2.885329
    17  H    2.464014   2.424265   4.884317   5.599531   2.855524
    18  O    6.412986   6.550762   6.857767   5.340163   1.452699
    19  O    4.508600   4.650736   6.842826   6.505114   1.454256
    20  N    6.004331   5.507426   6.934122   6.043647   1.656404
    21  H    6.677783   6.112316   6.859752   5.637792   2.260431
    22  H    5.562479   4.836234   6.853718   6.395478   2.262612
                   16         17         18         19         20
    16  H    0.000000
    17  H    4.286806   0.000000
    18  O    2.554030   4.157812   0.000000
    19  O    4.184191   2.502543   2.567302   0.000000
    20  N    3.611373   3.583933   2.484731   2.483607   0.000000
    21  H    3.284182   4.227134   2.672280   3.386660   1.018401
    22  H    4.246405   3.261474   3.388309   2.671721   1.018026
                   21         22
    21  H    0.000000
    22  H    1.688727   0.000000
 Stoichiometry    C6H6Cl2N2O4S2
 Framework group  C1[X(C6H6Cl2N2O4S2)]
 Deg. of freedom    60
 Full point group                 C1      NOp   1
 Largest Abelian subgroup         C1      NOp   1
 Largest concise Abelian subgroup C1      NOp   1
                         Standard orientation:                         
 ---------------------------------------------------------------------
 Center     Atomic      Atomic             Coordinates (Angstroms)
 Number     Number       Type             X           Y           Z
 ---------------------------------------------------------------------
      1          6           0        0.869266   -0.431074   -0.010693
      2          6           0        1.146768    0.944419    0.017558
      3          6           0        0.080068    1.853430   -0.027402
      4          6           0       -1.237799    1.402572   -0.086601
      5          6           0       -1.478803    0.038763   -0.090969
      6          6           0       -0.442244   -0.887385   -0.061297
      7         16           0        2.240972   -1.609995    0.002649
      8          8           0        2.987776   -1.395118   -1.223495
      9          8           0        2.836465   -1.541100    1.325619
     10          7           0        1.581868   -3.110571   -0.123457
     11          1           0        1.149209   -3.329722   -1.017494
     12          1           0        1.064000   -3.437520    0.687479
     13         17           0        2.765413    1.516961    0.085743
     14         17           0        0.363647    3.556317   -0.021112
     15         16           0       -3.166616   -0.552260   -0.130070
     16          1           0       -2.058051    2.111572   -0.144383
     17          1           0       -0.674185   -1.945540   -0.106101
     18          8           0       -3.973527    0.514851   -0.696201
     19          8           0       -3.113361   -1.903852   -0.664134
     20          7           0       -3.659873   -0.708906    1.443409
     21          1           0       -3.701719    0.178735    1.940886
     22          1           0       -3.139297   -1.413444    1.962065
 ---------------------------------------------------------------------
 Rotational constants (GHZ):           0.4530268           0.2711205           0.1826568
 Basis read from rwf:  (6D, 7F)
 There are   332 symmetry adapted cartesian basis functions of A   symmetry.
 There are   332 symmetry adapted basis functions of A   symmetry.
   332 basis functions,   632 primitive gaussians,   332 cartesian basis functions
    77 alpha electrons       77 beta electrons
       nuclear repulsion energy      1731.7136155115 Hartrees.
 NAtoms=   22 NActive=   22 NUniq=   22 SFac= 1.00D+00 NAtFMM=   60 NAOKFM=F Big=F
 Integral buffers will be    131072 words long.
 Raffenetti 2 integral format.
 Two-electron integral symmetry is turned on.
 One-electron integrals computed using PRISM.
 NBasis=   332 RedAO= T EigKep=  1.06D-06  NBF=   332
 NBsUse=   330 1.00D-06 EigRej=  8.93D-07 NBFU=   330
 Initial guess from the checkpoint file:  "/jobfs/50094818.gadi-pbs/Gau-1981496.chk"
 B after Tr=     0.000000    0.000000    0.000000
         Rot=    0.999995    0.001242    0.001209   -0.002552 Ang=   0.35 deg.
 ExpMin= 4.05D-02 ExpMax= 2.52D+04 ExpMxC= 3.78D+03 IAcc=3 IRadAn=         5 AccDes= 0.00D+00
 Harris functional with IExCor= 1009 and IRadAn=       5 diagonalized for initial guess.
 HarFok:  IExCor= 1009 AccDes= 0.00D+00 IRadAn=         5 IDoV= 1 UseB2=F ITyADJ=14
 ICtDFT=  3500011 ScaDFX=  1.000000  1.000000  1.000000  1.000000
 FoFCou: FMM=F IPFlag=           0 FMFlag=      100000 FMFlg1=           0
         NFxFlg=           0 DoJE=T BraDBF=F KetDBF=T FulRan=T
         wScrn=  0.000000 ICntrl=       500 IOpCl=  0 I1Cent=   200000004 NGrid=           0
         NMat0=    1 NMatS0=      1 NMatT0=    0 NMatD0=    1 NMtDS0=    0 NMtDT0=    0
 Petite list used in FoFCou.
 Requested convergence on RMS density matrix=1.00D-08 within 128 cycles.
 Requested convergence on MAX density matrix=1.00D-06.
 Requested convergence on             energy=1.00D-06.
 No special actions if energy rises.
 SCF Done:  E(RM062X) =  -2358.90763801     A.U. after   15 cycles
            NFock= 15  Conv=0.46D-08     -V/T= 2.0045
 Calling FoFJK, ICntrl=      2127 FMM=F ISym2X=0 I1Cent= 0 IOpClX= 0 NMat=1 NMatS=1 NMatT=0.
 ***** Axes restored to original set *****
 -------------------------------------------------------------------
 Center     Atomic                   Forces (Hartrees/Bohr)
 Number     Number              X              Y              Z
 -------------------------------------------------------------------
      1        6           0.001233891   -0.000787975   -0.001124588
      2        6          -0.000185828    0.000592971   -0.000469636
      3        6           0.000130317   -0.000634837   -0.000594518
      4        6          -0.001411055    0.000248656    0.001022276
      5        6           0.000506326    0.000381320    0.000009625
      6        6          -0.001968266    0.000794739    0.000446014
      7       16          -0.005356003    0.003340470    0.002585102
      8        8           0.001145915   -0.005211109    0.001730296
      9        8           0.002132647    0.002379256   -0.003700321
     10        7           0.005291459   -0.002276162   -0.002344736
     11        1          -0.001364232    0.001012901    0.001203932
     12        1          -0.001329964    0.001140840    0.001375884
     13       17           0.000025775   -0.000632763   -0.000195704
     14       17          -0.000064318    0.000104275    0.000204733
     15       16           0.001538826    0.002552913   -0.002971378
     16        1          -0.000052710    0.000274187   -0.000282099
     17        1           0.000403492    0.000206934   -0.000054388
     18        8           0.001625621    0.001017765    0.004438603
     19        8          -0.002581795   -0.002304251   -0.001769812
     20        7          -0.002043330   -0.003076818    0.002729942
     21        1           0.001262327    0.000410311   -0.001112785
     22        1           0.001060902    0.000466376   -0.001126440
 -------------------------------------------------------------------
 Cartesian Forces:  Max     0.005356003 RMS     0.001933100

 GradGradGradGradGradGradGradGradGradGradGradGradGradGradGradGradGradGrad
 Berny optimization.
 Using GEDIIS/GDIIS optimizer.
 FormGI is forming the generalized inverse of G from B-inverse, IUseBI=4.
 Internal  Forces:  Max     0.005606108 RMS     0.001111131
 Search for a local minimum.
 Step number   2 out of a maximum of  116
 All quantities printed in internal units (Hartrees-Bohrs-Radians)
 Mixed Optimization -- RFO/linear search
 Update second derivatives using D2CorX and points    1    2
 DE= -3.04D-03 DEPred=-2.94D-03 R= 1.04D+00
 TightC=F SS=  1.41D+00  RLast= 2.58D-01 DXNew= 5.0454D-01 7.7276D-01
 Trust test= 1.04D+00 RLast= 2.58D-01 DXMaxT set to 5.05D-01
 ITU=  1  0
 Use linear search instead of GDIIS.
     Eigenvalues ---    0.00341   0.00551   0.01436   0.01594   0.02044
     Eigenvalues ---    0.02079   0.02120   0.02152   0.02200   0.02222
     Eigenvalues ---    0.02232   0.02238   0.02247   0.03399   0.04135
     Eigenvalues ---    0.10060   0.10094   0.10704   0.11918   0.13702
     Eigenvalues ---    0.13966   0.15932   0.15996   0.16000   0.16000
     Eigenvalues ---    0.16000   0.16334   0.19410   0.19417   0.23345
     Eigenvalues ---    0.23504   0.24838   0.24998   0.24999   0.25000
     Eigenvalues ---    0.25000   0.25000   0.25342   0.25839   0.27214
     Eigenvalues ---    0.32611   0.33081   0.35286   0.35306   0.41953
     Eigenvalues ---    0.42466   0.42811   0.43924   0.43999   0.44144
     Eigenvalues ---    0.44212   0.45364   0.46032   0.46670   0.47662
     Eigenvalues ---    0.47801   0.85992   0.91824   0.91930   0.91965
 RFO step:  Lambda=-5.09787029D-04 EMin= 3.40612008D-03
 Quartic linear search produced a step of  0.11863.
 Iteration  1 RMS(Cart)=  0.04156697 RMS(Int)=  0.00069212
 Iteration  2 RMS(Cart)=  0.00090473 RMS(Int)=  0.00009522
 Iteration  3 RMS(Cart)=  0.00000031 RMS(Int)=  0.00009522
 Variable       Old X    -DE/DX   Delta X   Delta X   Delta X     New X
                                 (Linear)    (Quad)   (Total)
    R1        2.65221   0.00061   0.00026   0.00136   0.00162   2.65383
    R2        2.62586  -0.00145   0.00044  -0.00363  -0.00319   2.62267
    R3        3.41806   0.00096   0.00141   0.00354   0.00496   3.42302
    R4        2.64978  -0.00022   0.00088  -0.00090  -0.00002   2.64976
    R5        3.24707  -0.00038  -0.00132  -0.00073  -0.00205   3.24502
    R6        2.63449  -0.00084   0.00045  -0.00213  -0.00168   2.63281
    R7        3.26233  -0.00005  -0.00060   0.00007  -0.00053   3.26180
    R8        2.61717   0.00091  -0.00015   0.00221   0.00206   2.61923
    R9        2.05175   0.00009  -0.00004   0.00030   0.00026   2.05201
   R10        2.62739   0.00009  -0.00013   0.00027   0.00013   2.62752
   R11        3.38021   0.00105   0.00057   0.00407   0.00464   3.38485
   R12        2.04884   0.00037  -0.00040   0.00134   0.00093   2.04978
   R13        2.74324  -0.00561  -0.00170  -0.00613  -0.00783   2.73541
   R14        2.74473  -0.00489  -0.00153  -0.00533  -0.00685   2.73788
   R15        3.10632   0.00258   0.00333   0.00491   0.00824   3.11455
   R16        1.92207  -0.00109  -0.00084  -0.00242  -0.00326   1.91881
   R17        1.92037  -0.00099  -0.00102  -0.00207  -0.00309   1.91728
   R18        2.74520  -0.00478  -0.00144  -0.00522  -0.00666   2.73854
   R19        2.74815  -0.00381  -0.00119  -0.00416  -0.00535   2.74280
   R20        3.13015   0.00220   0.00291   0.00445   0.00736   3.13751
   R21        1.92450  -0.00096  -0.00082  -0.00210  -0.00293   1.92157
   R22        1.92379  -0.00092  -0.00095  -0.00196  -0.00290   1.92089
    A1        2.10504  -0.00008  -0.00089  -0.00026  -0.00115   2.10389
    A2        2.08138   0.00042  -0.00121   0.00254   0.00131   2.08269
    A3        2.09672  -0.00033   0.00210  -0.00220  -0.00011   2.09660
    A4        2.07634   0.00019  -0.00013   0.00077   0.00062   2.07696
    A5        2.11019   0.00052  -0.00041   0.00264   0.00218   2.11238
    A6        2.09657  -0.00071   0.00054  -0.00322  -0.00272   2.09385
    A7        2.10695  -0.00024   0.00015  -0.00112  -0.00097   2.10598
    A8        2.11109  -0.00026   0.00025  -0.00125  -0.00101   2.11008
    A9        2.06513   0.00050  -0.00040   0.00239   0.00199   2.06712
   A10        2.07499   0.00026   0.00031   0.00130   0.00160   2.07658
   A11        2.10045  -0.00025   0.00071  -0.00184  -0.00113   2.09932
   A12        2.10762  -0.00001  -0.00103   0.00054  -0.00049   2.10714
   A13        2.12487  -0.00049  -0.00095  -0.00180  -0.00277   2.12210
   A14        2.08247   0.00049   0.00088   0.00182   0.00269   2.08517
   A15        2.07584   0.00000   0.00010  -0.00004   0.00006   2.07590
   A16        2.07796   0.00036   0.00148   0.00102   0.00250   2.08045
   A17        2.12224  -0.00010   0.00081  -0.00062   0.00018   2.12242
   A18        2.08260  -0.00026  -0.00233  -0.00036  -0.00270   2.07989
   A19        1.86234  -0.00012  -0.00105  -0.00012  -0.00122   1.86112
   A20        1.86161  -0.00016  -0.00137  -0.00021  -0.00163   1.85998
   A21        1.86539   0.00058  -0.00245   0.00430   0.00181   1.86720
   A22        2.15485  -0.00009   0.00726  -0.00487   0.00241   2.15726
   A23        1.85105  -0.00006  -0.00167   0.00098  -0.00072   1.85033
   A24        1.85206  -0.00001  -0.00174   0.00129  -0.00049   1.85158
   A25        2.02049  -0.00022   0.00199   0.00517   0.00671   2.02719
   A26        2.02285  -0.00016   0.00203   0.00559   0.00716   2.03001
   A27        1.99911   0.00122   0.00227   0.01770   0.01938   2.01849
   A28        1.86494   0.00014  -0.00090   0.00226   0.00132   1.86626
   A29        1.85518   0.00028  -0.00175   0.00423   0.00243   1.85760
   A30        1.86656   0.00131  -0.00307   0.00929   0.00616   1.87272
   A31        2.16511  -0.00052   0.00765  -0.00989  -0.00224   2.16287
   A32        1.84862  -0.00054  -0.00156  -0.00248  -0.00410   1.84452
   A33        1.84613  -0.00035  -0.00154  -0.00055  -0.00216   1.84397
   A34        1.97560  -0.00019   0.00159   0.00270   0.00416   1.97976
   A35        1.97919  -0.00035   0.00211   0.00134   0.00332   1.98251
   A36        1.95556   0.00106   0.00171   0.01412   0.01563   1.97120
    D1       -0.01740  -0.00004  -0.00148  -0.00228  -0.00376  -0.02116
    D2        3.13780  -0.00033  -0.00009  -0.01833  -0.01844   3.11936
    D3        3.11351   0.00007  -0.00202   0.00659   0.00457   3.11808
    D4       -0.01448  -0.00022  -0.00064  -0.00946  -0.01011  -0.02459
    D5        0.00603  -0.00003   0.00023   0.00029   0.00051   0.00653
    D6        3.11730  -0.00003  -0.00215   0.00149  -0.00068   3.11662
    D7       -3.12479  -0.00014   0.00080  -0.00869  -0.00790  -3.13269
    D8       -0.01352  -0.00014  -0.00158  -0.00749  -0.00908  -0.02260
    D9       -1.11177   0.00016   0.00038   0.01211   0.01250  -1.09928
   D10        1.22156  -0.00015   0.00779   0.00575   0.01353   1.23508
   D11       -3.08630   0.00002   0.00397   0.00908   0.01305  -3.07324
   D12        2.01919   0.00027  -0.00018   0.02095   0.02078   2.03997
   D13       -1.93067  -0.00004   0.00724   0.01459   0.02181  -1.90885
   D14        0.04467   0.00013   0.00341   0.01792   0.02134   0.06600
   D15        0.01042   0.00001   0.00086   0.00028   0.00116   0.01158
   D16       -3.12430  -0.00005   0.00125  -0.00317  -0.00190  -3.12620
   D17        3.13852   0.00030  -0.00051   0.01625   0.01571  -3.12895
   D18        0.00380   0.00024  -0.00013   0.01279   0.01266   0.01645
   D19        0.00777   0.00009   0.00099   0.00365   0.00464   0.01241
   D20       -3.11682   0.00010   0.00204   0.00360   0.00565  -3.11117
   D21       -3.14051   0.00014   0.00062   0.00700   0.00762  -3.13290
   D22        0.01808   0.00016   0.00166   0.00695   0.00862   0.02670
   D23       -0.01972  -0.00015  -0.00230  -0.00573  -0.00803  -0.02776
   D24        3.11812  -0.00021   0.00008  -0.01108  -0.01101   3.10711
   D25        3.10479  -0.00017  -0.00334  -0.00572  -0.00905   3.09574
   D26       -0.04055  -0.00022  -0.00096  -0.01106  -0.01202  -0.05257
   D27        0.01290   0.00012   0.00170   0.00378   0.00548   0.01837
   D28       -3.09908   0.00011   0.00400   0.00261   0.00659  -3.09249
   D29       -3.12496   0.00017  -0.00068   0.00910   0.00843  -3.11653
   D30        0.04625   0.00017   0.00162   0.00793   0.00954   0.05579
   D31        0.40359   0.00045   0.00056   0.05414   0.05472   0.45831
   D32        2.74712   0.00010   0.00831   0.04626   0.05455   2.80167
   D33       -1.56988   0.00041   0.00427   0.05167   0.05595  -1.51393
   D34       -2.74165   0.00040   0.00286   0.04894   0.05182  -2.68983
   D35       -0.39811   0.00004   0.01061   0.04106   0.05165  -0.34647
   D36        1.56807   0.00036   0.00657   0.04647   0.05305   1.62112
   D37        1.19679   0.00073   0.00420   0.01842   0.02273   1.21952
   D38       -1.21765  -0.00085  -0.00424  -0.02516  -0.02951  -1.24715
   D39       -0.78542   0.00064   0.00735   0.01619   0.02364  -0.76178
   D40        3.08333  -0.00095  -0.00109  -0.02739  -0.02860   3.05473
   D41       -3.10457   0.00080   0.00064   0.02070   0.02147  -3.08310
   D42        0.76418  -0.00079  -0.00780  -0.02288  -0.03077   0.73341
   D43        1.13058   0.00047   0.00316   0.01325   0.01646   1.14703
   D44       -1.12222  -0.00054  -0.00239  -0.01039  -0.01283  -1.13505
   D45       -0.85399  -0.00002   0.00638   0.00768   0.01410  -0.83989
   D46       -3.10679  -0.00103   0.00083  -0.01596  -0.01518  -3.12198
   D47        3.10294   0.00121  -0.00098   0.02184   0.02092   3.12385
   D48        0.85014   0.00019  -0.00653  -0.00180  -0.00836   0.84177
         Item               Value     Threshold  Converged?
 Maximum Force            0.005606     0.000450     NO 
 RMS     Force            0.001111     0.000300     NO 
 Maximum Displacement     0.167934     0.001800     NO 
 RMS     Displacement     0.041579     0.001200     NO 
 Predicted change in Energy=-2.945971D-04
 GradGradGradGradGradGradGradGradGradGradGradGradGradGradGradGradGradGrad

                          Input orientation:                          
 ---------------------------------------------------------------------
 Center     Atomic      Atomic             Coordinates (Angstroms)
 Number     Number       Type             X           Y           Z
 ---------------------------------------------------------------------
      1          6           0       -1.561175    1.084319   -1.119377
      2          6           0       -2.821245    0.911473   -1.714807
      3          6           0       -2.925786    0.119127   -2.866937
      4          6           0       -1.801112   -0.500313   -3.407748
      5          6           0       -0.576214   -0.334129   -2.780767
      6          6           0       -0.439822    0.460172   -1.647734
      7         16           0       -1.409845    2.135787    0.347804
      8          8           0       -1.786522    3.472667   -0.059842
      9          8           0       -2.044903    1.420511    1.436000
     10          7           0        0.193136    2.209718    0.723817
     11          1           0        0.780125    2.731600    0.080308
     12          1           0        0.604528    1.365251    1.107233
     13         17           0       -4.222185    1.651545   -1.052690
     14         17           0       -4.446339   -0.107872   -3.651611
     15         16           0        0.868417   -1.167572   -3.434037
     16          1           0       -1.884087   -1.089465   -4.316124
     17          1           0        0.545171    0.599909   -1.215501
     18          8           0        0.630837   -1.377950   -4.848038
     19          8           0        2.022568   -0.466405   -2.902119
     20          7           0        0.913075   -2.682527   -2.756172
     21          1           0        0.137435   -3.275603   -3.040128
     22          1           0        1.057555   -2.673879   -1.750039
 ---------------------------------------------------------------------
                    Distance matrix (angstroms):
                    1          2          3          4          5
     1  C    0.000000
     2  C    1.404347   0.000000
     3  C    2.418207   1.402193   0.000000
     4  C    2.793792   2.428963   1.393224   0.000000
     5  C    2.396322   2.779921   2.394442   1.386036   0.000000
     6  C    1.387860   2.424736   2.789764   2.423487   1.390424
     7  S    1.811382   2.783049   4.086509   4.605028   4.072270
     8  O    2.622517   3.220136   4.519285   5.195503   4.833215
     9  O    2.622398   3.284725   4.580920   5.216407   4.797597
    10  N    2.782353   4.088865   5.195359   5.328332   4.398314
    11  H    3.103943   4.416465   5.407869   5.410599   4.407278
    12  H    3.118811   4.461586   5.459851   5.445410   4.404383
    13  Cl   2.721611   1.717189   2.705633   4.004796   4.496916
    14  Cl   4.019664   2.726023   1.726071   2.685275   3.973339
    15  S    4.041236   4.570753   4.046378   2.751783   1.791186
    16  H    3.879278   3.413043   2.155452   1.085878   2.153691
    17  H    2.163467   3.417476   3.873750   3.394331   2.140091
    18  O    4.977008   5.193791   4.337692   2.959571   2.611541
    19  O    4.292567   5.174049   4.983000   3.857115   2.604974
    20  N    4.794804   5.286438   4.753776   3.543081   2.780928
    21  H    5.058012   5.295458   4.575752   3.405194   3.037900
    22  H    4.623801   5.282147   4.991527   3.955296   3.034145
                    6          7          8          9         10
     6  C    0.000000
     7  S    2.780433   0.000000
     8  O    3.661984   1.447518   0.000000
     9  O    3.606655   1.448823   2.552576   0.000000
    10  N    3.014267   1.648150   2.475521   2.477675   0.000000
    11  H    3.103834   2.285283   2.675163   3.396710   1.015391
    12  H    3.082155   2.286516   3.394168   2.670323   1.014581
    13  Cl   4.009952   3.178856   3.199169   3.314742   4.791930
    14  Cl   4.515570   5.499965   5.726752   5.829806   6.785301
    15  S    2.748075   5.514072   6.321844   6.237217   5.399059
    16  H    3.406989   5.690288   6.240072   6.277959   6.371849
    17  H    1.084696   2.936824   3.876220   3.796358   2.544871
    18  O    3.842779   6.596023   7.231800   7.381065   6.641424
    19  O    2.914685   5.395819   6.172843   6.238914   4.863729
    20  N    3.596598   6.184398   7.241852   6.569541   6.046709
    21  H    4.028399   6.569270   7.623835   6.844839   6.652754
[...]
 -0.00017165,0.00009692,-0.00024786,-0.00026153,-0.00026200,-0.00002551
 ,0.00001993,0.00009706,0.00007789,-0.00000662,0.00007956,-0.00012667,0
 .00006259,-0.00055510,-0.00008141,0.00017122,0.00120310,-0.00172522,-0
 .00331138,0.00337804,-0.00262269,0.00138523,0.00279991,0.00049309,-0.0
 0054873,-0.08024963,0.16033679,-0.38007181,-0.00002935,-0.00547834,-0.
 00065483,0.07446811,-0.15112441,0.38394882,-0.03488148,0.01812012,0.01
 432444,-0.14360790,0.06073340,0.05067964,-0.01372392,0.01058011,0.0093
 6163,0.00398062,-0.00060815,-0.00084773,-0.00303462,0.00127019,0.00115
 697,-0.00125953,-0.00281753,-0.00522866,-0.00652694,0.00363972,0.00410
 296,-0.00078660,-0.00353004,-0.00146271,0.00023506,-0.00005568,-0.0036
 7710,0.00056592,-0.00026540,-0.00034894,0.00008571,0.00002456,0.000100
 66,0.00007713,0.00004573,0.00003687,0.19575858,0.00768128,0.00180652,-
 0.00036942,0.05787253,-0.06247345,-0.03535384,0.02233610,-0.00981382,-
 0.01469387,-0.00336649,0.00234320,-0.00381401,0.00189927,-0.00074083,0
 .00017294,-0.00014324,0.00311867,-0.00183821,0.00062430,-0.00472322,-0
 .00232079,-0.00310604,0.00072287,-0.00094227,-0.00103464,0.00036169,0.
 00130536,-0.00034566,0.00070211,0.00030421,0.00015154,-0.00004138,-0.0
 0003018,0.00000869,-0.00001654,0.00000202,-0.08386928,0.07240909,-0.00
 005271,0.00270731,0.00720072,0.04666092,-0.03436991,-0.05952386,0.0258
 1151,-0.01837693,-0.01286873,-0.00509131,-0.00291049,-0.00135546,0.002
 03873,0.00007877,0.00007538,-0.00173048,-0.00244815,0.00043406,0.00002
 588,-0.00172329,-0.00476941,-0.00230673,0.00062953,-0.00012546,-0.0035
 9616,-0.00010719,-0.00089857,-0.00038487,0.00033865,0.00073755,0.00008
 119,-0.00002768,-0.00000510,0.00019467,-0.00002945,0.00000475,-0.06494
 120,0.05934365,0.07648376,0.00189768,-0.00028039,-0.00110311,-0.019558
 64,-0.00232361,-0.01039252,-0.15863776,-0.01547278,-0.06213639,-0.0438
 4993,-0.00316475,-0.01955639,0.00084556,0.00429170,0.00467743,-0.00188
 079,-0.00102669,-0.00219438,-0.00124175,0.00242804,0.00289039,0.000417
 71,-0.00114342,-0.00029180,0.00057967,-0.00007087,-0.00110460,-0.00026
 562,-0.00050364,-0.00075234,0.00001260,0.00011860,-0.00005011,-0.00002
 833,-0.00009290,0.00009627,0.00298636,0.00107153,0.00285333,0.21837080
 ,0.00254245,0.00110831,-0.00359967,-0.01550696,-0.00036628,-0.01083719
 ,-0.01263648,-0.03078923,-0.01370242,0.01060403,0.00550887,0.00426076,
 0.00115543,0.00208649,-0.00337836,-0.00070390,-0.00004197,0.00088010,-
 0.00026923,0.00071230,0.00067894,0.00000825,-0.00029723,-0.00009200,0.
 00005845,0.00000606,-0.00037683,-0.00033002,-0.00017788,-0.00017471,-0
 .00001735,0.00000782,-0.00008007,-0.00001546,-0.00006762,0.00001392,-0
 .00366489,-0.00321751,-0.00361059,0.01836539,0.02712327,0.00254278,-0.
 00441220,-0.00115579,-0.02857241,-0.00645402,-0.01385909,-0.05842949,-
 0.01496311,-0.06248824,-0.00041999,0.00021860,0.00462824,0.00096567,-0
 .00246360,0.00182265,-0.00105969,0.00054417,-0.00058612,-0.00082246,0.
 00152603,0.00204483,0.00012587,-0.00085039,-0.00024448,0.00026253,-0.0
 0001927,-0.00079119,-0.00052596,-0.00022021,-0.00062404,0.00001008,0.0
 0007001,-0.00010183,-0.00005731,-0.00014171,0.00001500,-0.00383996,-0.
 00225615,-0.00564391,0.08838459,0.02793621,0.07712288,0.00436396,-0.00
 411247,-0.00517173,-0.00455217,0.00074339,0.00015011,-0.00394090,-0.00
 145990,-0.00530036,-0.02381380,0.01052934,0.00594805,-0.12912823,0.036
 97821,0.02245887,0.00607691,0.00723364,0.01235676,0.00694967,0.0053347
 8,0.00801284,-0.00129773,-0.00313093,-0.00188359,-0.00091532,-0.000875
 61,-0.00363078,-0.00418520,-0.00037923,-0.00131142,0.00065662,-0.00004
 380,-0.00078564,0.00033667,-0.00065058,-0.00003849,0.00360482,-0.00211
 841,-0.00190269,0.00184994,0.00020991,0.00081086,0.76651354,-0.0015940
 8,0.00263135,-0.00382953,0.00066411,-0.00226974,-0.00242358,-0.0006195
 2,0.00697813,-0.00016780,0.00512354,0.00340920,0.00732807,0.03304398,-
 0.08524672,-0.02339545,0.01107429,-0.00838573,-0.00614307,0.00045324,-
 0.00123717,-0.00519686,-0.00008518,0.00135987,0.00121129,-0.00050206,-
 0.00051737,0.00233564,0.00018136,0.00047898,0.00170370,0.00007449,-0.0
 0032338,-0.00036906,-0.00014058,0.00042010,-0.00027679,-0.00269098,0.0
 0103466,0.00133956,-0.00284327,-0.00006848,-0.00090206,0.20355463,0.62
 437887,-0.00092166,-0.00518248,-0.00198385,-0.00052461,-0.00217155,-0.
 00362695,-0.00401265,-0.00074935,0.00313761,0.00185865,0.00888714,0.01
 110555,0.02352433,-0.02675307,-0.08304626,0.01804850,-0.00910750,-0.00
 686742,0.00151737,-0.00240101,-0.00074758,-0.00028231,0.00104124,-0.00
 015002,-0.00030499,0.00041084,0.00055109,-0.00045331,0.00101072,0.0007
 7559,-0.00008325,-0.00027753,-0.00004034,0.00005091,-0.00026239,-0.000
 27410,-0.00177497,0.00098674,0.00052173,-0.00265076,-0.00012871,-0.000
 72986,0.22025238,0.14453381,0.92016528,-0.00115899,0.00033333,0.000262
 06,-0.00308441,0.00227333,0.00042958,0.00470071,0.01438103,0.02072202,
 -0.05834190,-0.01349591,-0.02650041,0.00295139,-0.01484344,-0.02172498
 ,-0.00533754,0.00058771,-0.00252051,-0.00031352,0.00004005,0.00010306,
 0.00009293,-0.00011553,0.00001310,0.00007674,0.00003020,-0.00003600,0.
 00010987,-0.00015045,-0.00016603,0.00002333,0.00001648,0.00000237,0.00
 001221,-0.00000101,0.00001995,-0.00034224,0.00079373,0.00110448,0.0004
 7703,0.00006074,0.00105636,-0.00152529,-0.00227665,-0.00518778,0.05965
 566,0.00052666,-0.00035429,0.00073625,0.00246069,0.00348028,-0.0031296
 3,-0.00187571,-0.00300176,-0.01089377,-0.01209234,-0.13322201,-0.14105
 512,-0.00137565,0.00293567,-0.00238346,0.00073227,0.00470644,-0.002337
 56,-0.00009015,-0.00042020,-0.00007093,0.00004731,-0.00004773,0.000010
 22,-0.00009792,0.00005391,0.00022262,0.00004161,-0.00004079,0.00005333
 ,0.00001956,-0.00001822,-0.00002607,-0.00003050,0.00003759,0.00001306,
 0.00008576,-0.00040886,-0.00019628,-0.00106278,-0.00145807,0.00150004,
 0.00000590,-0.00151010,0.00115730,0.01180001,0.13051162,0.00032383,0.0
 0067592,0.00038410,0.00056215,-0.00274205,0.00193890,-0.00217387,-0.00
 537129,-0.00440960,-0.02566891,-0.14317448,-0.25698720,-0.00174305,-0.
 00637047,-0.00589104,-0.00214929,-0.00202751,0.00229395,-0.00011740,-0
 .00005431,-0.00043752,-0.00002626,0.00015538,0.00009853,0.00006506,0.0
 0003426,0.00000615,0.00010925,-0.00000116,-0.00004003,-0.00002242,0.00
 001212,0.00002669,0.00001541,-0.00001475,-0.00000927,0.00001387,0.0001
 1439,-0.00007521,-0.00057053,0.00176338,-0.00013772,0.00018320,0.00040
 456,-0.00091646,0.02974430,0.15626552,0.26541783,-0.01686951,-0.001782
 27,-0.00801713,-0.00121178,0.00231135,0.00143922,-0.00008454,0.0002536
 4,0.00045908,0.00114313,0.00110771,0.00069947,0.00344716,-0.00140125,-
 0.00161389,-0.29993429,-0.03194771,-0.11106510,-0.00239461,0.00010802,
 -0.00012662,0.00026685,-0.00061597,0.00007625,0.00031404,0.00018710,-0
 .00020095,-0.00022787,-0.00235447,-0.00279904,0.00037791,-0.00019948,-
 0.00028595,0.00023025,-0.00013857,-0.00004159,-0.00061412,-0.00001063,
 -0.00019470,0.00020702,-0.00004824,0.00010247,0.00150369,0.00064558,0.
 00067379,0.00038741,0.00004816,0.00009788,0.31614709,0.01197396,0.0057
 5750,0.00589829,0.00256782,0.00269944,-0.00418098,0.00035087,-0.001121
 31,-0.00017526,0.00085594,0.00194933,-0.00529492,-0.01496228,0.0023056
 7,-0.00626112,-0.03413906,-0.05064484,-0.02371975,0.00301737,-0.001560
 26,0.00217708,-0.00028723,-0.00073075,-0.00070769,-0.00080025,-0.00003
 665,0.00080304,-0.00118870,-0.00162159,-0.00070090,0.00021391,-0.00062
 845,-0.00077079,-0.00045808,0.00055133,0.00014163,0.00102939,-0.000042
 13,0.00008515,-0.00010726,-0.00021892,0.00023365,-0.00239047,-0.002529
 63,-0.00053121,-0.00077374,0.00020517,-0.00026478,0.03402268,0.0460266
 7,0.00996950,0.00177437,0.00915733,0.00115979,-0.00413985,0.00112802,0
 .00053963,-0.00004192,-0.00077429,-0.00003069,-0.00543779,-0.00145750,
 -0.02042853,-0.00295517,-0.00548026,-0.11148984,-0.02213722,-0.0972968
 3,0.00426167,0.00134928,0.00019098,-0.00073254,0.00065916,-0.00009504,
 -0.00038895,-0.00038588,-0.00086917,-0.00138324,-0.00106449,-0.0026711
 4,-0.00037167,-0.00012834,0.00018849,0.00011626,-0.00043539,-0.0005853
 0,0.00103627,-0.00017272,0.00013848,0.00013671,0.00026657,-0.00002628,
 -0.00335877,-0.00105316,-0.00269130,-0.00101362,-0.00000551,-0.0001000
 9,0.12031351,0.03134335,0.09937847,-0.00000804,0.00175316,0.00147017,0
 .00051793,0.00006846,0.00028988,0.00199817,0.00040881,0.00131211,-0.00
 260407,-0.00067511,-0.00040609,0.00781233,0.00677726,0.01912271,-0.003
 65882,-0.00060823,-0.00073053,-0.00165346,-0.00117075,-0.00209815,0.00
 029064,0.00075781,0.00051084,0.00020021,0.00016604,0.00086538,0.000999
 57,0.00002262,0.00029787,-0.00014406,0.00001724,0.00017350,-0.00007800
 ,0.00017153,0.00001729,-0.00044725,0.00034939,0.00036017,-0.00024273,-
 0.00001382,-0.00009528,-0.11144035,-0.02305187,-0.09705536,0.00125658,
 0.00091993,0.00144645,-0.00029716,0.00027122,0.00065696,0.08884214,0.0
 0067830,-0.00154844,-0.00027136,-0.00088458,0.00024993,-0.00013154,-0.
 00075324,-0.00055174,0.00017014,0.00024366,-0.00050571,-0.00175623,-0.
 00195412,0.00550286,-0.01696110,0.00313298,0.00118470,-0.00018773,0.00
 037272,0.00054609,0.00184913,-0.00002653,-0.00065486,-0.00044314,0.000
 11394,0.00009616,-0.00079297,-0.00020571,-0.00013055,-0.00044190,0.000
 00919,0.00008359,0.00005132,0.00003261,-0.00010131,0.00007421,0.000746
 40,-0.00031814,-0.00031566,0.00072045,0.00007615,0.00024383,-0.0236883
 0,-0.10629739,-0.10541802,0.00087992,-0.00073195,-0.00031164,-0.000186
 39,0.00054197,0.00013157,0.01875881,0.08527017,-0.00041399,-0.00145320
 ,-0.00140356,-0.00074695,0.00084261,0.00069823,-0.00027580,-0.00066889
 ,-0.00020724,-0.00205534,-0.00149693,-0.00203883,-0.01156640,-0.003101
 57,-0.01666529,0.00762660,-0.00190213,-0.00078564,0.00042170,0.0018164
 4,0.00196472,0.00002701,-0.00134678,-0.00028874,0.00019212,-0.00017142
 ,-0.00107294,-0.00015836,-0.00051211,-0.00055666,0.00006489,0.00016167
 ,-0.00001368,-0.00000519,0.00003911,0.00014574,0.00109593,-0.00043208,
 -0.00037356,0.00129765,0.00007949,0.00054454,-0.11114115,-0.10385637,-
 0.57702039,0.00221404,0.00024690,-0.00095864,0.00006287,0.00080394,0.0
 0054500,0.11577164,0.10729565,0.62501312,0.00019005,0.00118471,0.00070
 120,0.00070176,-0.00096890,-0.00097187,-0.00030344,0.00109914,-0.00049
 314,-0.00349092,0.00443075,0.00728519,-0.02039807,-0.02031702,-0.01275
 020,-0.00173559,-0.00052262,-0.00111299,-0.00277486,-0.00245006,-0.003
 52390,0.00055960,0.00129658,0.00080216,0.00042102,0.00043167,0.0013844
 8,0.00191086,0.00024539,0.00062891,-0.00034860,0.00003630,0.00037121,-
 0.00018049,0.00027212,0.00002516,-0.00129442,0.00072712,0.00075083,-0.
 00159876,0.00022221,-0.00029178,-0.44040017,-0.22145094,-0.13235895,0.
 00038956,-0.00049908,0.00038049,-0.00219899,0.00015425,0.00096730,0.00
 783172,-0.00531412,0.00536827,0.46325141,0.00002070,0.00084837,0.00115
 107,0.00051204,0.00038088,0.00074041,0.00028792,-0.00137211,-0.0003235
 0,-0.00158586,0.00125519,-0.00085630,0.00829511,0.00729867,-0.00259823
 ,0.00053942,-0.00081104,-0.00250678,-0.00130677,-0.00026254,0.00042062
 ,0.00028582,0.00005847,-0.00008273,0.00036814,0.00029493,-0.00032096,0
 .00063601,-0.00003098,-0.00040430,-0.00016340,0.00014819,0.00032480,0.
 00003570,-0.00006729,0.00008845,0.00025001,-0.00005513,0.00000008,0.00
 030567,0.00002808,0.00023626,-0.21210396,-0.21668538,-0.08326803,0.000
 52003,0.00017816,0.00015380,0.00037904,-0.00006269,0.00156582,-0.00915
 500,0.01130892,0.00251749,0.24870500,0.22440750,0.00059902,0.00111637,
 0.00141607,0.00037523,0.00007492,0.00020947,0.00040049,0.00030093,0.00
 008698,0.00004406,-0.00119955,-0.00091328,0.00702451,-0.00004401,0.009
 05613,-0.00060346,-0.00107483,-0.00228563,-0.00155814,0.00039402,-0.00
 022547,0.00033328,-0.00025901,0.00019678,0.00035639,0.00003034,-0.0000
 5598,0.00081423,-0.00038923,-0.00020102,-0.00007150,0.00016407,0.00013
 731,-0.00009055,0.00017410,0.00015425,0.00011195,0.00002870,0.00011829
 ,0.00049552,0.00008161,0.00021334,-0.12316923,-0.07781124,-0.13535700,
 0.00088384,-0.00017369,0.00006835,0.00046272,0.00099523,0.00146025,-0.
 03197910,-0.01844133,0.00192069,0.13706774,0.08815802,0.10923301,-0.00
 119500,-0.00062548,0.00120883,0.00105936,-0.00009760,-0.00016205,0.000
 95732,-0.00070286,0.00145906,0.00126017,0.00096910,0.00056135,0.004351
 39,0.01790806,-0.00494401,-0.00163410,0.00023521,-0.00209908,-0.001451
 93,-0.00149048,-0.00195093,0.00028284,0.00072836,0.00039978,0.00020459
 ,0.00028592,0.00085706,0.00096709,0.00018963,0.00037881,-0.00015091,-0
 .00002497,0.00015008,-0.00009339,0.00012925,-0.00002873,-0.00098152,0.
 00061979,0.00043732,-0.00044268,-0.00003932,-0.00022130,-0.07017998,-0
 .01943194,-0.01608879,-0.00005813,0.00041202,-0.00013533,-0.00047908,0
 .00061231,0.00004804,0.00812993,0.00801757,-0.00898071,-0.00142002,-0.
 03665932,0.01007614,0.36718433,0.00072931,0.00090234,-0.00121156,-0.00
 073948,0.00066100,0.00123613,-0.00006704,0.00025050,-0.00238913,-0.000
 02069,-0.00312666,-0.00216639,0.00186492,-0.01073699,0.01142592,0.0019
 7191,-0.00082078,0.00085821,0.00062478,0.00127580,0.00309525,-0.000090
 19,-0.00089473,-0.00066440,0.00011932,0.00012060,-0.00151640,-0.000504
 49,-0.00020176,-0.00083296,0.00002997,0.00013308,0.00007952,0.00007341
 ,-0.00023429,0.00013144,0.00143706,-0.00090471,-0.00060540,0.00119959,
 0.00011424,0.00039619,0.00182856,-0.19936545,0.05199927,-0.00012546,-0
 .00080357,0.00045211,-0.00017360,-0.00042933,0.00091119,0.00083884,0.0
 0819577,-0.00418826,-0.00548698,-0.02233981,0.00929316,0.24711021,0.45
 938379,-0.00057098,0.00066019,0.00088911,0.00044925,0.00054404,0.00040
 842,0.00036387,-0.00039522,-0.00040595,-0.00098075,-0.00051940,-0.0004
 9399,0.00467825,-0.00191661,0.00869496,-0.00137287,0.00044239,0.000282
 15,-0.00029191,0.00018735,-0.00069583,0.00003870,-0.00002697,0.0001748
 5,-0.00002460,-0.00018886,0.00038829,0.00013514,-0.00012027,0.00013947
 ,0.00003580,0.00000532,-0.00004092,-0.00002412,0.00013855,0.00001788,0
 .00003186,0.00001087,-0.00001942,0.00000429,0.00003005,0.00004075,-0.0
 2808729,0.06898480,-0.11977345,0.00074893,-0.00009257,-0.00024650,0.00
 006020,0.00012226,-0.00019633,-0.00712629,0.03518459,-0.02768150,-0.00
 536161,-0.01046438,0.01239264,0.18903459,-0.02591013,0.63221044,0.0001
 1227,0.00015505,-0.00021205,-0.00008945,-0.00002076,-0.00000642,-0.000
 26888,-0.00002049,0.00005455,-0.00009246,0.00033931,0.00032664,-0.0006
 3377,0.00020537,-0.00053207,-0.00009009,0.00007343,0.00006461,0.000162
 92,0.00019081,0.00021272,-0.00004235,-0.00007860,-0.00003590,-0.000032
 12,-0.00006573,-0.00006822,-0.00012412,-0.00003546,-0.00002709,0.00001
 356,0.00000533,-0.00001466,0.00001400,-0.00001255,0.00000440,0.0000017
 4,-0.00001992,-0.00001133,-0.00005648,-0.00001315,-0.00000315,0.000299
 57,0.00871471,0.00000654,-0.00000291,0.00014794,-0.00032458,0.00007158
 ,-0.00006222,-0.00002576,-0.00035501,0.00124415,0.00072606,0.00415502,
 0.00105737,-0.00087178,-0.26980089,-0.21768007,-0.08874558,0.27132250,
 -0.00041152,-0.00000617,0.00025892,0.00035593,-0.00004125,0.00005258,0
 .00069423,-0.00010659,0.00023157,0.00027214,0.00001405,-0.00012891,0.0
 0135259,0.00144148,0.00068550,-0.00015784,0.00003440,-0.00050351,-0.00
 023808,-0.00050817,-0.00068560,0.00003895,0.00027571,0.00013196,-0.000
 00392,0.00007405,0.00032013,0.00018760,0.00009743,0.00014148,-0.000032
 20,-0.00002496,0.00002174,-0.00000945,0.00001020,-0.00003391,-0.000287
 29,0.00017060,0.00013226,-0.00023045,-0.00003202,-0.00011843,-0.023907
 51,-0.02042323,-0.00586500,0.00017978,-0.00009298,0.00022362,-0.000118
 13,0.00002206,0.00001352,0.00296426,0.00234610,-0.00184141,-0.00183775
 ,-0.00453321,0.00252161,-0.18707853,-0.17776754,-0.03910570,0.20500631
 ,0.19769163,-0.00007165,0.00004276,-0.00009258,0.00010554,-0.00010749,
 0.00003269,0.00016268,-0.00000018,-0.00005979,0.00002452,0.00027944,0.
 00047950,-0.00009356,0.00019336,-0.00079301,-0.00015179,-0.00016209,-0
 .00016279,-0.00005806,-0.00021318,-0.00009364,0.00000468,0.00009525,0.
 00001550,0.00001493,0.00005618,0.00004131,0.00003842,0.00003867,0.0000
 5418,-0.00000207,-0.00001702,-0.00000781,-0.00001519,-0.00000199,-0.00
 000974,-0.00008646,0.00003962,0.00002710,-0.00011395,-0.00001413,-0.00
 005390,0.01592851,0.00240974,0.01026806,-0.00014238,0.00014866,-0.0000
 1344,-0.00000878,0.00006969,-0.00008765,-0.00187948,-0.00213602,-0.002
 83721,0.00090463,0.00668629,-0.00006425,-0.07134133,-0.02545900,-0.074
 49178,0.08370914,0.04226896,0.06909454,-0.00032837,0.00008868,0.000125
 52,0.00001148,0.00029538,0.00029725,-0.00008554,-0.00019963,-0.0004449
 8,-0.00037982,-0.00022587,-0.00023280,0.00012098,-0.00005856,0.0010459
 2,0.00007389,-0.00000797,0.00018287,0.00040809,0.00054915,0.00055751,-
 0.00008047,-0.00024604,-0.00013053,-0.00007291,-0.00014705,-0.00019617
 ,-0.00032617,-0.00006697,-0.00014383,0.00005553,0.00000695,-0.00002838
 ,0.00006735,-0.00003879,0.00001979,0.00020460,-0.00012097,-0.00010687,
 0.00015909,0.00003196,0.00007756,-0.00077626,0.01115715,-0.00423308,0.
 00003151,-0.00012370,-0.00001024,0.00021584,0.00009958,0.00001795,0.00
 304974,-0.00193771,0.00047511,-0.00326665,-0.00122367,-0.00070135,-0.0
 3650938,-0.03293989,-0.06299491,-0.00456465,0.00326087,-0.02692836,0.0
 4199212,0.00016490,-0.00021186,-0.00029168,-0.00006150,-0.00025950,-0.
 00028142,0.00000899,0.00016279,0.00041416,0.00021606,0.00023580,-0.000
 06496,-0.00099508,-0.00087126,-0.00139632,0.00063155,0.00003852,0.0000
 8172,0.00024733,-0.00031552,-0.00030925,-0.00005291,0.00019892,0.00004
 988,-0.00009011,0.00001982,0.00015757,-0.00007496,0.00016812,0.0001025
 4,-0.00002846,-0.00002879,-0.00000325,0.00002247,-0.00005920,-0.000077
 23,-0.00017322,0.00008632,0.00006605,-0.00017815,-0.00003637,-0.000103
 84,0.00844282,0.00416862,0.03208878,-0.00011414,0.00000169,0.00007737,
 -0.00008658,-0.00043259,-0.00005739,0.00042939,-0.00456232,0.00716783,
 0.00004225,0.00001283,-0.00394020,-0.03106693,-0.05341148,-0.02757030,
 0.00086916,0.00135842,-0.02421753,0.02184710,0.05373704,-0.00002049,0.
 00003526,-0.00014331,-0.00001363,0.00003698,0.00018142,0.00000112,-0.0
 0002076,-0.00024344,-0.00015159,-0.00034354,-0.00008962,0.00035895,-0.
 00066015,0.00088390,0.00022167,0.00004920,0.00013650,0.00027982,0.0000
 1814,0.00056598,-0.00005389,-0.00002782,-0.00014233,-0.00004386,0.0000
 8264,-0.00024640,-0.00016967,0.00008292,-0.00014370,-0.00002658,0.0000
 0667,0.00001666,0.00003995,-0.00013848,-0.00002046,0.00015469,-0.00008
 496,-0.00008312,0.00008069,0.00000366,0.00001021,-0.00032043,-0.004826
 19,-0.01329992,-0.00001237,0.00001070,-0.00001176,-0.00009370,-0.00006
 592,0.00014417,-0.00092468,0.00260820,0.00107183,0.00022684,-0.0012179
 0,0.00243907,-0.09865878,-0.01493475,-0.43159330,0.00577393,0.00127864
 ,-0.00124528,0.09335201,0.01810745,0.44181291\\0.00000241,-0.00000132,
 -0.00000322,0.,0.00000165,-0.00000466,-0.00000178,0.00000231,-0.000000
 20,0.00000642,0.00000391,-0.00000110,0.00000102,-0.00000249,-0.0000078
 0,-0.00001003,0.00000071,0.00000947,0.00000692,0.00000534,0.00000146,0
 .00000612,-0.00001024,0.00000716,0.00000581,0.00000391,-0.00000251,-0.
 00000973,-0.00000143,0.00000047,0.00000079,-0.00000607,0.00001170,0.00
 000297,-0.00000268,0.00000027,0.00000377,0.00000131,0.00000050,0.00000
 135,0.00000803,-0.00000158,0.00000389,-0.00000224,-0.00002342,-0.00000
 409,0.00000501,-0.00000244,0.00000114,-0.00000317,-0.00000347,0.000003
 05,0.00001077,0.00001510,-0.00000671,-0.00000177,0.00000388,-0.0000270
 9,-0.00001461,0.00001342,0.00000127,0.00000221,-0.00000344,0.00001251,
 0.00000085,-0.00000959\\\@
 The archive entry for this job was punched.


 SEEN ON A WALL AT THE UNIVERSITY OF ILLINOIS AT CHICAGO CIRCLE:

 TO DO IS TO BE  -- SOCRATES
 TO BE IS TO DO  -- SARTRE
 OO BE DO BE DO  -- SINATRA
 Job cpu time:       0 days  1 hours 45 minutes 49.6 seconds.
 Elapsed time:       0 days  0 hours  7 minutes 10.3 seconds.
 File lengths (MBytes):  RWF=    304 Int=      0 D2E=      0 Chk=     10 Scr=      1
 Normal termination of Gaussian 16 at Sat Jul  2 18:46:02 2022.
