 Entering Gaussian System, Link 0=g16
 AtFile(1): /home/561/yj5695/Basis/6-31pGd.gbs
 Initial command:
 /apps/gaussian/g16c01/g16/l1.exe "/jobfs/49913700.gadi-pbs/Gau-607613.inp" -scrdir="/jobfs/49913700.gadi-pbs/"
 Entering Link 1 = /apps/gaussian/g16c01/g16/l1.exe PID=    607614.
  
 Copyright (c) 1988-2019, Gaussian, Inc.  All Rights Reserved.
  
 This is part of the Gaussian(R) 16 program.  It is based on
 the Gaussian(R) 09 system (copyright 2009, Gaussian, Inc.),
 the Gaussian(R) 03 system (copyright 2003, Gaussian, Inc.),
 the Gaussian(R) 98 system (copyright 1998, Gaussian, Inc.),
 the Gaussian(R) 94 system (copyright 1995, Gaussian, Inc.),
 the Gaussian 92(TM) system (copyright 1992, Gaussian, Inc.),
 the Gaussian 90(TM) system (copyright 1990, Gaussian, Inc.),
 the Gaussian 88(TM) system (copyright 1988, Gaussian, Inc.),
 the Gaussian 86(TM) system (copyright 1986, Carnegie Mellon
 University), and the Gaussian 82(TM) system (copyright 1983,
 Carnegie Mellon University). Gaussian is a federally registered
 trademark of Gaussian, Inc.
  
 This software contains proprietary and confidential information,
 including trade secrets, belonging to Gaussian, Inc.
  
 This software is provided under written license and may be
 used, copied, transmitted, or stored only in accord with that
 written license.
  
 The following legend is applicable only to US Government
 contracts under FAR:
  
                    RESTRICTED RIGHTS LEGEND
  
 Use, reproduction and disclosure by the US Government is
 subject to restrictions as set forth in subparagraphs (a)
 and (c) of the Commercial Computer Software - Restricted
 Rights clause in FAR 52.227-19.
  
 Gaussian, Inc.
 340 Quinnipiac St., Bldg. 40, Wallingford CT 06492
  
  
 ---------------------------------------------------------------
 Warning -- This program may not be used in any manner that
 competes with the business of Gaussian, Inc. or will provide
 assistance to any competitor of Gaussian, Inc.  The licensee
 of this program is prohibited from giving any competitor of
 Gaussian, Inc. access to this program.  By using this program,
 the user acknowledges that Gaussian, Inc. is engaged in the
 business of creating and licensing software in the field of
 computational chemistry and represents and warrants to the
 licensee that it is not a competitor of Gaussian, Inc. and that
 it will not use this program in any manner prohibited above.
 ---------------------------------------------------------------
  

 Cite this work as:
 Gaussian 16, Revision C.01,
 M. J. Frisch, G. W. Trucks, H. B. Schlegel, G. E. Scuseria, 
 M. A. Robb, J. R. Cheeseman, G. Scalmani, V. Barone, 
 G. A. Petersson, H. Nakatsuji, X. Li, M. Caricato, A. V. Marenich, 
 J. Bloino, B. G. Janesko, R. Gomperts, B. Mennucci, H. P. Hratchian, 
 J. V. Ortiz, A. F. Izmaylov, J. L. Sonnenberg, D. Williams-Young, 
 F. Ding, F. Lipparini, F. Egidi, J. Goings, B. Peng, A. Petrone, 
 T. Henderson, D. Ranasinghe, V. G. Zakrzewski, J. Gao, N. Rega, 
 G. Zheng, W. Liang, M. Hada, M. Ehara, K. Toyota, R. Fukuda, 
 J. Hasegawa, M. Ishida, T. Nakajima, Y. Honda, O. Kitao, H. Nakai, 
 T. Vreven, K. Throssell, J. A. Montgomery, Jr., J. E. Peralta, 
 F. Ogliaro, M. J. Bearpark, J. J. Heyd, E. N. Brothers, K. N. Kudin, 
 V. N. Staroverov, T. A. Keith, R. Kobayashi, J. Normand, 
 K. Raghavachari, A. P. Rendell, J. C. Burant, S. S. Iyengar, 
 J. Tomasi, M. Cossi, J. M. Millam, M. Klene, C. Adamo, R. Cammi, 
 J. W. Ochterski, R. L. Martin, K. Morokuma, O. Farkas, 
 J. B. Foresman, and D. J. Fox, Gaussian, Inc., Wallingford CT, 2019.
 
 ******************************************
 Gaussian 16:  ES64L-G16RevC.01  3-Jul-2019
                 1-Jul-2022 
 ******************************************
 %nproc=16
 Will use up to   16 processors via shared memory.
 %mem=50gb
 --------------------------------------------------
 #M062X/gen 6D INT(grid=ultrafine) OPT Freq=noraman
 --------------------------------------------------
 1/18=20,19=15,26=4,38=1/1,3;
 2/9=110,12=2,17=6,18=5,40=1/2;
 3/5=7,8=2,11=2,25=1,30=1,71=1,74=-55,75=-5/1,2,3;
 4//1;
 5/5=2,38=5/2;
 6/7=2,8=2,9=2,10=2,28=1/1;
 7//1,2,3,16;
 1/18=20,19=15,26=4/3(2);
 2/9=110/2;
 99//99;
 2/9=110/2;
 3/5=7,6=1,8=2,11=2,25=1,30=1,71=1,74=-55,75=-5,82=7/1,2,3;
 4/5=5,16=3,69=1/1;
 5/5=2,38=5/2;
 7//1,2,3,16;
 1/18=20,19=15,26=4/3(-5);
 2/9=110/2;
 6/7=2,8=2,9=2,10=2,19=2,28=1/1;
 99/9=1/99;
 ----------
 HA.33.freq
 ----------
 Symbolic Z-matrix:
 Charge =  0 Multiplicity = 1
 C                    -1.63216   1.08517  -0.90079 
 C                    -2.79011   0.59845  -1.5526 
 C                    -4.14944   0.5259   -0.89102 
 C                    -2.72109   0.17713  -2.86519 
 H                    -3.60578  -0.19411  -3.37222 
 C                    -1.4999    0.20937  -3.56814 
 C                    -0.35513   0.69661  -2.91469 
 C                     0.90742   0.85733  -3.68283 
 C                    -0.4316    1.12905  -1.59575 
 S                    -1.57941   1.67489   0.78474 
 O                    -0.29672   2.35656   0.9476 
 O                    -2.81364   2.40401   1.06246 
 N                    -1.53393   0.39978   1.82883 
 H                    -0.69619  -0.16944   1.6949 
 H                    -2.37698  -0.17377   1.78806 
 N                    -1.41606  -0.17667  -4.8775 
 C                    -0.11614  -0.65101  -5.33289 
 N                     0.87579   0.34071  -4.93109 
 H                    -2.20702  -0.71084  -5.23106 
 F                    -4.98236  -0.28881  -1.55511 
 F                    -4.75286   1.72285  -0.83216 
 F                    -4.08033   0.04792   0.36709 
 H                     1.7436    0.37439  -5.46129 
 C                    -0.09099  -0.83042  -6.84628 
 C                    -1.08083  -1.87735  -7.29736 
 C                    -0.7937   -3.23793  -7.13098 
 H                     0.16326  -3.53331  -6.70556 
 C                    -1.71649  -4.21032  -7.51234 
 H                    -1.47808  -5.26212  -7.38181 
 C                    -2.94227  -3.83369  -8.06592 
 H                    -3.66055  -4.59102  -8.36656 
 C                    -3.23732  -2.48154  -8.23557 
 H                    -4.18711  -2.1802   -8.66818 
 C                    -2.31091  -1.50974  -7.85193 
 H                    -2.54137  -0.45537  -7.98896 
 H                     0.11508  -1.61197  -4.84742 
 H                     0.9262   -1.12992  -7.12264 
 H                    -0.30591   0.13431  -7.31753 
 O                     1.88132   1.47603  -3.23713 
 H                     0.46209   1.51825  -1.11901 
 

 GradGradGradGradGradGradGradGradGradGradGradGradGradGradGradGradGradGrad
 Berny optimization.
 Initialization pass.
                           ----------------------------
                           !    Initial Parameters    !
                           ! (Angstroms and Degrees)  !
 --------------------------                            --------------------------
 ! Name  Definition              Value          Derivative Info.                !
 --------------------------------------------------------------------------------
 ! R1    R(1,2)                  1.4151         estimate D2E/DX2                !
 ! R2    R(1,9)                  1.3879         estimate D2E/DX2                !
 ! R3    R(1,10)                 1.7865         estimate D2E/DX2                !
 ! R4    R(2,3)                  1.5135         estimate D2E/DX2                !
 ! R5    R(2,4)                  1.3803         estimate D2E/DX2                !
 ! R6    R(3,20)                 1.3411         estimate D2E/DX2                !
 ! R7    R(3,21)                 1.3417         estimate D2E/DX2                !
 ! R8    R(3,22)                 1.3476         estimate D2E/DX2                !
 ! R9    R(4,5)                  1.0852         estimate D2E/DX2                !
 ! R10   R(4,6)                  1.4094         estimate D2E/DX2                !
 ! R11   R(6,7)                  1.4053         estimate D2E/DX2                !
 ! R12   R(6,16)                 1.3677         estimate D2E/DX2                !
 ! R13   R(7,8)                  1.4866         estimate D2E/DX2                !
 ! R14   R(7,9)                  1.3901         estimate D2E/DX2                !
 ! R15   R(8,18)                 1.3513         estimate D2E/DX2                !
 ! R16   R(8,39)                 1.2369         estimate D2E/DX2                !
 ! R17   R(9,40)                 1.0851         estimate D2E/DX2                !
 ! R18   R(10,11)                1.4617         estimate D2E/DX2                !
 ! R19   R(10,12)                1.4602         estimate D2E/DX2                !
 ! R20   R(10,13)                1.6487         estimate D2E/DX2                !
 ! R21   R(13,14)                1.0217         estimate D2E/DX2                !
 ! R22   R(13,15)                1.0205         estimate D2E/DX2                !
 ! R23   R(16,17)                1.4568         estimate D2E/DX2                !
 ! R24   R(16,19)                1.0178         estimate D2E/DX2                !
 ! R25   R(17,18)                1.4591         estimate D2E/DX2                !
 ! R26   R(17,24)                1.5242         estimate D2E/DX2                !
 ! R27   R(17,36)                1.1012         estimate D2E/DX2                !
 ! R28   R(18,23)                1.0175         estimate D2E/DX2                !
 ! R29   R(24,25)                1.5097         estimate D2E/DX2                !
 ! R30   R(24,37)                1.0958         estimate D2E/DX2                !
 ! R31   R(24,38)                1.095          estimate D2E/DX2                !
 ! R32   R(25,26)                1.4005         estimate D2E/DX2                !
 ! R33   R(25,34)                1.3985         estimate D2E/DX2                !
 ! R34   R(26,27)                1.0881         estimate D2E/DX2                !
 ! R35   R(26,28)                1.3938         estimate D2E/DX2                !
 ! R36   R(28,29)                1.0863         estimate D2E/DX2                !
 ! R37   R(28,30)                1.3967         estimate D2E/DX2                !
 ! R38   R(30,31)                1.0862         estimate D2E/DX2                !
 ! R39   R(30,32)                1.3943         estimate D2E/DX2                !
 ! R40   R(32,33)                1.0863         estimate D2E/DX2                !
 ! R41   R(32,34)                1.3964         estimate D2E/DX2                !
 ! R42   R(34,35)                1.0879         estimate D2E/DX2                !
 ! A1    A(2,1,9)              119.2129         estimate D2E/DX2                !
 ! A2    A(2,1,10)             124.9079         estimate D2E/DX2                !
 ! A3    A(9,1,10)             115.8781         estimate D2E/DX2                !
 ! A4    A(1,2,3)              123.3713         estimate D2E/DX2                !
 ! A5    A(1,2,4)              120.1377         estimate D2E/DX2                !
 ! A6    A(3,2,4)              116.4842         estimate D2E/DX2                !
 ! A7    A(2,3,20)             111.7449         estimate D2E/DX2                !
 ! A8    A(2,3,21)             112.3541         estimate D2E/DX2                !
 ! A9    A(2,3,22)             112.2731         estimate D2E/DX2                !
 ! A10   A(20,3,21)            106.5201         estimate D2E/DX2                !
 ! A11   A(20,3,22)            106.1812         estimate D2E/DX2                !
 ! A12   A(21,3,22)            107.3683         estimate D2E/DX2                !
 ! A13   A(2,4,5)              120.5298         estimate D2E/DX2                !
 ! A14   A(2,4,6)              120.7059         estimate D2E/DX2                !
 ! A15   A(5,4,6)              118.7619         estimate D2E/DX2                !
 ! A16   A(4,6,7)              118.805          estimate D2E/DX2                !
 ! A17   A(4,6,16)             121.6112         estimate D2E/DX2                !
 ! A18   A(7,6,16)             119.5438         estimate D2E/DX2                !
 ! A19   A(6,7,8)              119.279          estimate D2E/DX2                !
 ! A20   A(6,7,9)              120.279          estimate D2E/DX2                !
 ! A21   A(8,7,9)              120.222          estimate D2E/DX2                !
 ! A22   A(7,8,18)             114.5884         estimate D2E/DX2                !
 ! A23   A(7,8,39)             122.4527         estimate D2E/DX2                !
 ! A24   A(18,8,39)            122.8554         estimate D2E/DX2                !
 ! A25   A(1,9,7)              120.8536         estimate D2E/DX2                !
 ! A26   A(1,9,40)             120.2502         estimate D2E/DX2                !
 ! A27   A(7,9,40)             118.8893         estimate D2E/DX2                !
 ! A28   A(1,10,11)            106.5577         estimate D2E/DX2                !
 ! A29   A(1,10,12)            108.6219         estimate D2E/DX2                !
 ! A30   A(1,10,13)            110.0607         estimate D2E/DX2                !
 ! A31   A(11,10,12)           119.1897         estimate D2E/DX2                !
 ! A32   A(11,10,13)           105.4217         estimate D2E/DX2                !
 ! A33   A(12,10,13)           106.8021         estimate D2E/DX2                !
 ! A34   A(10,13,14)           111.7478         estimate D2E/DX2                !
 ! A35   A(10,13,15)           112.7437         estimate D2E/DX2                !
 ! A36   A(14,13,15)           111.0411         estimate D2E/DX2                !
 ! A37   A(6,16,17)            116.4804         estimate D2E/DX2                !
 ! A38   A(6,16,19)            115.6619         estimate D2E/DX2                !
 ! A39   A(17,16,19)           114.4543         estimate D2E/DX2                !
 ! A40   A(16,17,18)           107.4118         estimate D2E/DX2                !
 ! A41   A(16,17,24)           111.3114         estimate D2E/DX2                !
 ! A42   A(16,17,36)           109.494          estimate D2E/DX2                !
 ! A43   A(18,17,24)           110.0116         estimate D2E/DX2                !
 ! A44   A(18,17,36)           109.208          estimate D2E/DX2                !
 ! A45   A(24,17,36)           109.3631         estimate D2E/DX2                !
 ! A46   A(8,18,17)            122.0154         estimate D2E/DX2                !
 ! A47   A(8,18,23)            116.6608         estimate D2E/DX2                !
 ! A48   A(17,18,23)           117.311          estimate D2E/DX2                !
 ! A49   A(17,24,25)           111.5595         estimate D2E/DX2                !
 ! A50   A(17,24,37)           107.3315         estimate D2E/DX2                !
 ! A51   A(17,24,38)           108.6861         estimate D2E/DX2                !
 ! A52   A(25,24,37)           110.1039         estimate D2E/DX2                !
 ! A53   A(25,24,38)           110.7134         estimate D2E/DX2                !
 ! A54   A(37,24,38)           108.3285         estimate D2E/DX2                !
 ! A55   A(24,25,26)           120.2505         estimate D2E/DX2                !
 ! A56   A(24,25,34)           120.8557         estimate D2E/DX2                !
 ! A57   A(26,25,34)           118.87           estimate D2E/DX2                !
 ! A58   A(25,26,27)           119.3729         estimate D2E/DX2                !
 ! A59   A(25,26,28)           120.6343         estimate D2E/DX2                !
 ! A60   A(27,26,28)           119.9915         estimate D2E/DX2                !
 ! A61   A(26,28,29)           119.8222         estimate D2E/DX2                !
 ! A62   A(26,28,30)           120.0909         estimate D2E/DX2                !
 ! A63   A(29,28,30)           120.0864         estimate D2E/DX2                !
 ! A64   A(28,30,31)           120.134          estimate D2E/DX2                !
 ! A65   A(28,30,32)           119.6984         estimate D2E/DX2                !
 ! A66   A(31,30,32)           120.1671         estimate D2E/DX2                !
 ! A67   A(30,32,33)           120.1643         estimate D2E/DX2                !
 ! A68   A(30,32,34)           120.0719         estimate D2E/DX2                !
 ! A69   A(33,32,34)           119.7636         estimate D2E/DX2                !
 ! A70   A(25,34,32)           120.6344         estimate D2E/DX2                !
 ! A71   A(25,34,35)           119.408          estimate D2E/DX2                !
 ! A72   A(32,34,35)           119.9567         estimate D2E/DX2                !
 ! D1    D(9,1,2,3)           -179.1923         estimate D2E/DX2                !
 ! D2    D(9,1,2,4)             -0.1747         estimate D2E/DX2                !
 ! D3    D(10,1,2,3)             0.4107         estimate D2E/DX2                !
 ! D4    D(10,1,2,4)           179.4283         estimate D2E/DX2                !
 ! D5    D(2,1,9,7)             -0.3011         estimate D2E/DX2                !
 ! D6    D(2,1,9,40)           178.7318         estimate D2E/DX2                !
 ! D7    D(10,1,9,7)          -179.9392         estimate D2E/DX2                !
 ! D8    D(10,1,9,40)           -0.9064         estimate D2E/DX2                !
 ! D9    D(2,1,10,11)         -167.2569         estimate D2E/DX2                !
 ! D10   D(2,1,10,12)          -37.6816         estimate D2E/DX2                !
 ! D11   D(2,1,10,13)           78.9201         estimate D2E/DX2                !
 ! D12   D(9,1,10,11)           12.358          estimate D2E/DX2                !
 ! D13   D(9,1,10,12)          141.9332         estimate D2E/DX2                !
 ! D14   D(9,1,10,13)         -101.465          estimate D2E/DX2                !
 ! D15   D(1,2,3,20)          -162.9092         estimate D2E/DX2                !
 ! D16   D(1,2,3,21)            77.4188         estimate D2E/DX2                !
 ! D17   D(1,2,3,22)           -43.7277         estimate D2E/DX2                !
 ! D18   D(4,2,3,20)            18.0399         estimate D2E/DX2                !
 ! D19   D(4,2,3,21)          -101.6321         estimate D2E/DX2                !
 ! D20   D(4,2,3,22)           137.2215         estimate D2E/DX2                !
 ! D21   D(1,2,4,5)           -179.7934         estimate D2E/DX2                !
 ! D22   D(1,2,4,6)              0.7779         estimate D2E/DX2                !
 ! D23   D(3,2,4,5)             -0.71           estimate D2E/DX2                !
 ! D24   D(3,2,4,6)            179.8613         estimate D2E/DX2                !
 ! D25   D(2,4,6,7)             -0.896          estimate D2E/DX2                !
 ! D26   D(2,4,6,16)          -178.5837         estimate D2E/DX2                !
 ! D27   D(5,4,6,7)            179.6654         estimate D2E/DX2                !
 ! D28   D(5,4,6,16)             1.9776         estimate D2E/DX2                !
 ! D29   D(4,6,7,8)           -174.2046         estimate D2E/DX2                !
 ! D30   D(4,6,7,9)              0.4188         estimate D2E/DX2                !
 ! D31   D(16,6,7,8)             3.532          estimate D2E/DX2                !
 ! D32   D(16,6,7,9)           178.1553         estimate D2E/DX2                !
 ! D33   D(4,6,16,17)         -154.4792         estimate D2E/DX2                !
 ! D34   D(4,6,16,19)          -15.6774         estimate D2E/DX2                !
 ! D35   D(7,6,16,17)           27.8498         estimate D2E/DX2                !
 ! D36   D(7,6,16,19)          166.6516         estimate D2E/DX2                !
 ! D37   D(6,7,8,18)            -8.4002         estimate D2E/DX2                !
 ! D38   D(6,7,8,39)           167.9967         estimate D2E/DX2                !
 ! D39   D(9,7,8,18)           176.9733         estimate D2E/DX2                !
 ! D40   D(9,7,8,39)            -6.6298         estimate D2E/DX2                !
 ! D41   D(6,7,9,1)              0.1737         estimate D2E/DX2                !
 ! D42   D(6,7,9,40)          -178.8721         estimate D2E/DX2                !
 ! D43   D(8,7,9,1)            174.746          estimate D2E/DX2                !
 ! D44   D(8,7,9,40)            -4.2998         estimate D2E/DX2                !
 ! D45   D(7,8,18,17)          -18.9642         estimate D2E/DX2                !
 ! D46   D(7,8,18,23)         -175.8066         estimate D2E/DX2                !
 ! D47   D(39,8,18,17)         164.6551         estimate D2E/DX2                !
 ! D48   D(39,8,18,23)           7.8127         estimate D2E/DX2                !
 ! D49   D(1,10,13,14)          61.9346         estimate D2E/DX2                !
 ! D50   D(1,10,13,15)         -63.9653         estimate D2E/DX2                !
 ! D51   D(11,10,13,14)        -52.6132         estimate D2E/DX2                !
 ! D52   D(11,10,13,15)       -178.513          estimate D2E/DX2                !
 ! D53   D(12,10,13,14)        179.6688         estimate D2E/DX2                !
 ! D54   D(12,10,13,15)         53.769          estimate D2E/DX2                !
 ! D55   D(6,16,17,18)         -50.1525         estimate D2E/DX2                !
 ! D56   D(6,16,17,24)        -170.6374         estimate D2E/DX2                !
 ! D57   D(6,16,17,36)          68.3229         estimate D2E/DX2                !
 ! D58   D(19,16,17,18)        170.5557         estimate D2E/DX2                !
 ! D59   D(19,16,17,24)         50.0708         estimate D2E/DX2                !
 ! D60   D(19,16,17,36)        -70.9689         estimate D2E/DX2                !
 ! D61   D(16,17,18,8)          47.0756         estimate D2E/DX2                !
 ! D62   D(16,17,18,23)       -156.2241         estimate D2E/DX2                !
 ! D63   D(24,17,18,8)         168.3796         estimate D2E/DX2                !
 ! D64   D(24,17,18,23)        -34.9201         estimate D2E/DX2                !
 ! D65   D(36,17,18,8)         -71.5843         estimate D2E/DX2                !
 ! D66   D(36,17,18,23)         85.116          estimate D2E/DX2                !
 ! D67   D(16,17,24,25)        -62.5506         estimate D2E/DX2                !
 ! D68   D(16,17,24,37)        176.7549         estimate D2E/DX2                !
 ! D69   D(16,17,24,38)         59.7996         estimate D2E/DX2                !
 ! D70   D(18,17,24,25)        178.5076         estimate D2E/DX2                !
 ! D71   D(18,17,24,37)         57.8132         estimate D2E/DX2                !
 ! D72   D(18,17,24,38)        -59.1422         estimate D2E/DX2                !
 ! D73   D(36,17,24,25)         58.5656         estimate D2E/DX2                !
 ! D74   D(36,17,24,37)        -62.1288         estimate D2E/DX2                !
 ! D75   D(36,17,24,38)       -179.0842         estimate D2E/DX2                !
 ! D76   D(17,24,25,26)        -76.6609         estimate D2E/DX2                !
 ! D77   D(17,24,25,34)        101.5467         estimate D2E/DX2                !
 ! D78   D(37,24,25,26)         42.3982         estimate D2E/DX2                !
 ! D79   D(37,24,25,34)       -139.3942         estimate D2E/DX2                !
 ! D80   D(38,24,25,26)        162.1614         estimate D2E/DX2                !
 ! D81   D(38,24,25,34)        -19.6311         estimate D2E/DX2                !
 ! D82   D(24,25,26,27)         -2.1045         estimate D2E/DX2                !
 ! D83   D(24,25,26,28)        178.3088         estimate D2E/DX2                !
 ! D84   D(34,25,26,27)        179.6526         estimate D2E/DX2                !
 ! D85   D(34,25,26,28)          0.0659         estimate D2E/DX2                !
 ! D86   D(24,25,34,32)       -178.3265         estimate D2E/DX2                !
 ! D87   D(24,25,34,35)          2.0209         estimate D2E/DX2                !
 ! D88   D(26,25,34,32)         -0.0945         estimate D2E/DX2                !
 ! D89   D(26,25,34,35)       -179.7472         estimate D2E/DX2                !
 ! D90   D(25,26,28,29)        179.7004         estimate D2E/DX2                !
 ! D91   D(25,26,28,30)         -0.0378         estimate D2E/DX2                !
 ! D92   D(27,26,28,29)          0.1162         estimate D2E/DX2                !
 ! D93   D(27,26,28,30)       -179.622          estimate D2E/DX2                !
 ! D94   D(26,28,30,31)        179.788          estimate D2E/DX2                !
 ! D95   D(26,28,30,32)          0.0372         estimate D2E/DX2                !
 ! D96   D(29,28,30,31)          0.0505         estimate D2E/DX2                !
 ! D97   D(29,28,30,32)       -179.7003         estimate D2E/DX2                !
 ! D98   D(28,30,32,33)        179.8109         estimate D2E/DX2                !
 ! D99   D(28,30,32,34)         -0.0657         estimate D2E/DX2                !
 ! D100  D(31,30,32,33)          0.0601         estimate D2E/DX2                !
 ! D101  D(31,30,32,34)       -179.8164         estimate D2E/DX2                !
 ! D102  D(30,32,34,25)          0.0954         estimate D2E/DX2                !
 ! D103  D(30,32,34,35)        179.7461         estimate D2E/DX2                !
 ! D104  D(33,32,34,25)       -179.7816         estimate D2E/DX2                !
 ! D105  D(33,32,34,35)         -0.1309         estimate D2E/DX2                !
 --------------------------------------------------------------------------------
 Trust Radius=3.00D-01 FncErr=1.00D-07 GrdErr=1.00D-06 EigMax=2.50D+02 EigMin=1.00D-04
 Number of steps in this run=    229 maximum allowed number of steps=    240.
 GradGradGradGradGradGradGradGradGradGradGradGradGradGradGradGradGradGrad

                          Input orientation:                          
 ---------------------------------------------------------------------
 Center     Atomic      Atomic             Coordinates (Angstroms)
 Number     Number       Type             X           Y           Z
 ---------------------------------------------------------------------
      1          6           0       -1.632162    1.085171   -0.900793
      2          6           0       -2.790112    0.598452   -1.552596
      3          6           0       -4.149444    0.525902   -0.891023
      4          6           0       -2.721095    0.177127   -2.865191
      5          1           0       -3.605784   -0.194109   -3.372220
      6          6           0       -1.499905    0.209370   -3.568141
      7          6           0       -0.355127    0.696611   -2.914690
      8          6           0        0.907425    0.857326   -3.682831
      9          6           0       -0.431605    1.129046   -1.595754
     10         16           0       -1.579413    1.674889    0.784738
     11          8           0       -0.296722    2.356556    0.947601
     12          8           0       -2.813641    2.404005    1.062455
     13          7           0       -1.533934    0.399785    1.828827
     14          1           0       -0.696185   -0.169443    1.694901
     15          1           0       -2.376980   -0.173767    1.788060
     16          7           0       -1.416057   -0.176672   -4.877500
     17          6           0       -0.116141   -0.651013   -5.332886
     18          7           0        0.875785    0.340712   -4.931093
     19          1           0       -2.207019   -0.710839   -5.231063
     20          9           0       -4.982359   -0.288808   -1.555111
     21          9           0       -4.752862    1.722848   -0.832157
     22          9           0       -4.080335    0.047922    0.367089
     23          1           0        1.743601    0.374386   -5.461286
     24          6           0       -0.090990   -0.830419   -6.846281
     25          6           0       -1.080829   -1.877353   -7.297363
     26          6           0       -0.793700   -3.237928   -7.130975
     27          1           0        0.163255   -3.533309   -6.705563
     28          6           0       -1.716494   -4.210323   -7.512341
     29          1           0       -1.478082   -5.262120   -7.381814
     30          6           0       -2.942267   -3.833687   -8.065920
     31          1           0       -3.660550   -4.591016   -8.366557
     32          6           0       -3.237317   -2.481543   -8.235568
     33          1           0       -4.187113   -2.180196   -8.668178
     34          6           0       -2.310913   -1.509741   -7.851928
     35          1           0       -2.541373   -0.455365   -7.988960
     36          1           0        0.115082   -1.611975   -4.847420
     37          1           0        0.926205   -1.129918   -7.122637
     38          1           0       -0.305906    0.134312   -7.317533
     39          8           0        1.881324    1.476028   -3.237135
     40          1           0        0.462095    1.518255   -1.119010
 ---------------------------------------------------------------------
                    Distance matrix (angstroms):
                    1          2          3          4          5
     1  C    0.000000
     2  C    1.415129   0.000000
     3  C    2.578679   1.513515   0.000000
     4  C    2.422638   1.380283   2.461537   0.000000
     5  H    3.411699   2.145811   2.640137   1.085159   0.000000
     6  C    2.810563   2.424549   3.779843   1.409427   2.153116
     7  C    2.416108   2.791789   4.303628   2.422833   3.401395
     8  C    3.773744   4.275125   5.785841   3.781185   4.644464
     9  C    1.387888   2.417840   3.831808   2.785567   3.870657
    10  S    1.786495   2.843878   3.276187   4.107153   4.987949
    11  O    2.610819   3.944478   4.644921   5.016460   6.009711
    12  O    2.643778   3.177903   3.021211   4.515966   5.200388
    13  N    2.816067   3.612683   3.775497   4.846930   5.629935
    14  H    3.031128   3.939598   4.369840   5.001480   5.843123
    15  H    3.060982   3.453546   3.287650   4.679133   5.304608
    16  N    4.177696   3.680194   4.884364   2.424394   2.657268
    17  C    4.995608   4.796027   6.114149   3.682543   4.028719
    18  N    4.804928   4.991940   6.450534   4.151175   4.774995
    19  H    4.723066   3.947830   4.913094   2.578781   2.383034
    20  F    3.679643   2.364992   1.341087   2.654566   2.281625
    21  F    3.185924   2.373960   1.341737   3.263519   3.382666
    22  F    2.945668   2.377594   1.347622   3.508826   3.777064
    23  H    5.718311   5.990210   7.459104   5.168378   5.770901
    24  C    6.433779   6.111467   7.333195   4.876646   4.982747
    25  C    7.070829   6.484875   7.498882   5.153204   4.961396
    26  C    7.629376   7.058455   8.022745   5.794339   5.594720
    27  H    7.632118   7.235115   8.299726   6.069207   6.038798
    28  C    8.471242   7.732757   8.496642   6.469540   6.069596
    29  H    9.072787   8.369438   9.097678   7.178466   6.803579
    30  C    8.789231   7.879745   8.481889   6.571387   5.976420
    31  H    9.595368   8.609199   9.072237   7.340490   6.654261
    32  C    8.312454   7.372142   7.988683   6.014646   5.387047
    33  H    8.804696   7.765565   8.234594   6.432794   5.685917
    34  C    7.450674   6.660007   7.481861   5.280277   4.845138
    35  H    7.310405   6.526805   7.343670   5.165788   4.745051
    36  H    5.089530   4.917519   6.197562   3.895384   4.246339
    37  H    7.082598   6.915463   8.205911   5.756475   5.956533
    38  H    6.620999   6.294537   7.498411   5.065404   5.153886
    39  O    4.237434   5.042829   6.540424   4.796639   5.737243
    40  H    2.149672   3.407475   4.722608   3.870461   4.955480
                    6          7          8          9         10
     6  C    0.000000
     7  C    1.405318   0.000000
     8  C    2.495643   1.486575   0.000000
     9  C    2.424330   1.390122   2.494538   0.000000
    10  S    4.593650   4.017670   5.178025   2.698547   0.000000
    11  O    5.142954   4.204297   5.013836   2.827300   1.461674
    12  O    5.290061   4.977667   6.225455   3.790211   1.460157
    13  N    5.400433   4.896799   6.045490   3.670792   1.648660
    14  H    5.337516   4.702627   5.704894   3.547462   2.238313
    15  H    5.441042   5.192427   6.463831   4.114852   2.249510
    16  N    1.367655   2.396002   2.809797   3.666593   5.959522
    17  C    2.401955   2.778647   2.458751   4.151419   6.706438
    18  N    2.742041   2.389077   1.351314   3.668136   6.362291
    19  H    2.027833   3.282683   3.815223   4.444406   6.501958
    20  F    4.053142   4.922478   6.366346   4.766689   4.572859
    21  F    4.511978   4.972944   6.396429   4.428199   3.561941
    22  F    4.708579   5.006800   6.475703   4.281917   3.012650
    23  H    3.759196   3.315666   2.023691   4.499263   7.193508
    24  C    3.716504   4.225991   3.721925   5.614583   8.168502
    25  C    4.293849   5.134176   4.949391   6.478292   8.842362
    26  C    5.007632   5.783598   5.617351   7.059762   9.349419
    27  H    5.159182   5.703653   5.382227   6.942734   9.287994
    28  C    5.927674   6.860738   6.872494   8.072534  10.173300
    29  H    6.669466   7.531447   7.537953   8.684503  10.715639
    30  C    6.217454   7.331580   7.485800   8.532009  10.513607
    31  H    7.122983   8.282975   8.513995   9.433396  11.284454
    32  C    5.660786   6.835162   7.003881   8.061979  10.069285
    33  H    6.240312   7.487508   7.748196   8.664531  10.536575
    34  C    4.686567   5.750601   5.774260   7.045190   9.234120
    35  H    4.590226   5.644019   5.670989   6.916254   9.079710
    36  H    2.749915   3.047312   2.842802   4.287819   6.737654
    37  H    4.507121   4.762861   3.972626   6.123153   8.756235
    38  H    3.935633   4.438877   3.899485   5.808963   8.345178
    39  O    3.625837   2.390225   1.236898   2.857301   5.309587
    40  H    3.400127   2.137151   2.684832   1.085112   2.795809
                   11         12         13         14         15
    11  O    0.000000
    12  O    2.519985   0.000000
    13  N    2.477137   2.498375   0.000000
    14  H    2.664338   3.392085   1.021655   0.000000
    15  H    3.381771   2.713316   1.020465   1.683380   0.000000
    16  N    6.449958   6.625421   6.732089   6.611711   6.734469
    17  C    6.965816   7.583537   7.375937   7.068108   7.486456
    18  N    6.324353   7.334280   7.176821   6.828993   7.482792
    19  H    7.157795   7.048306   7.178341   7.109480   7.041692
    20  F    5.934367   4.336615   4.880249   5.380345   4.240050
    21  F    4.840073   2.795372   4.380962   5.140371   4.013415
    22  F    4.470179   2.763905   2.957134   3.641812   2.229287
    23  H    7.011829   8.212613   7.993037   7.580193   8.356595
    24  C    8.422809   8.967856   8.879920   8.588069   8.955935
    25  C    9.301626   9.550876   9.416900   9.161099   9.334191
    26  C    9.839137  10.151053   9.698400   9.344581   9.562690
    27  H    9.668143  10.220358   9.549109   9.089666   9.480556
    28  C   10.803252  10.884861  10.418438  10.106585  10.160093
    29  H   11.349844  11.482982  10.811854  10.437120  10.525490
    30  C   11.249958  11.056789  10.854110  10.665139  10.526893
    31  H   12.097009  11.770890  11.548872  11.382913  11.147909
    32  C   10.788183  10.511961  10.606395  10.507967  10.321779
    33  H   11.321681  10.843733  11.130264  11.118593  10.799780
    34  C    9.820230   9.748660   9.897828   9.774748   9.732346
    35  H    9.633664   9.496223   9.906319   9.862233   9.782456
    36  H    7.035700   7.722185   7.165103   6.748408   7.232455
    37  H    8.875798   9.668030   9.408559   9.016853   9.551219
    38  H    8.558673   9.036838   9.232249   9.025993   9.343237
    39  O    4.799086   6.433531   6.203729   5.803112   6.790255
    40  H    2.355723   4.034079   3.731602   3.479659   4.401629
                   16         17         18         19         20
    16  N    0.000000
    17  C    1.456763   0.000000
    18  N    2.350128   1.459066   0.000000
    19  H    1.017822   2.094211   3.270997   0.000000
    20  F    4.875382   6.171131   6.790538   4.625283   0.000000
    21  F    5.577386   6.884109   7.098819   5.635115   2.149905
    22  F    5.886810   6.978042   7.260825   5.951835   2.149858
    23  H    3.260048   2.127573   1.017518   4.103427   7.806188
    24  C    2.461562   1.524199   2.444206   2.664734   7.226016
    25  C    2.976647   2.508726   3.787794   2.626529   7.121718
    26  C    3.851852   3.222474   4.520324   3.463137   7.571818
    27  H    4.135584   3.204674   4.320241   3.969721   7.970652
    28  C    4.827317   4.469882   5.839065   4.206095   7.844281
    29  H    5.668969   5.226404   6.552743   5.086377   8.424028
    30  C    5.086166   5.058248   6.467632   4.281259   7.688873
    31  H    6.057862   6.106523   7.530119   5.196138   8.164065
    32  C    4.461618   4.638766   5.983501   3.636476   7.244430
    33  H    5.105105   5.480455   6.778917   4.230076   7.403073
    34  C    3.380098   3.449640   4.702180   2.741892   6.948180
    35  H    3.320420   3.602050   4.654166   2.789813   6.883354
    36  H    2.098901   1.101176   2.097297   2.520194   6.210794
    37  H    3.381643   2.125804   2.639728   3.683853   8.161859
    38  H    2.698686   2.142794   2.670972   2.946501   7.433287
    39  O    4.036700   3.592540   2.273664   5.047048   7.283818
    40  H    4.530616   4.774603   4.011200   5.385352   5.753064
                   21         22         23         24         25
    21  F    0.000000
    22  F    2.166993   0.000000
    23  H    8.090192   8.245894   0.000000
    24  C    8.026325   8.289696   2.595281   0.000000
    25  C    8.261002   8.452665   4.052026   1.509745   0.000000
    26  C    8.942000   8.821550   4.719594   2.524075   1.400462
    27  H    9.289364   8.991979   4.394974   2.718466   2.154104
    28  C    9.436467   9.263143   6.099069   3.809154   2.427558
    29  H   10.119879   9.747500   6.770366   4.674483   3.409045
    30  C    9.299497   9.352953   6.815376   4.317050   2.807645
    31  H    9.890662   9.898108   7.893077   5.403249   3.893855
    32  C    8.647790   9.006364   6.376716   3.815194   2.428109
    33  H    8.772516   9.306555   7.209952   4.681820   3.408789
    34  C    8.104932   8.550405   5.069930   2.529993   1.398495
    35  H    7.800969   8.511478   5.043672   2.729608   2.152567
    36  H    7.137243   6.895497   2.640935   2.156094   2.739134
    37  H    8.942047   9.085634   2.385614   1.095791   2.148807
    38  H    8.022404   8.561962   2.775565   1.094976   2.155854
    39  O    7.060967   7.111350   2.485847   4.715470   6.041935
    40  H    5.226846   5.000403   4.669696   6.214805   7.216843
                   26         27         28         29         30
    26  C    0.000000
    27  H    1.088113   0.000000
    28  C    1.393751   2.154692   0.000000
    29  H    2.151430   2.477920   1.086349   0.000000
    30  C    2.417724   3.403684   1.396719   2.156910   0.000000
    31  H    3.402402   4.301062   2.157305   2.486617   1.086214
    32  C    2.786307   3.874406   2.413430   3.399325   1.394320
    33  H    3.872601   4.960693   3.400196   4.300213   2.155548
    34  C    2.410050   3.395658   2.786001   3.872333   2.417669
    35  H    3.396050   4.293700   3.873926   4.960252   3.402895
    36  H    2.946902   2.673302   4.148239   4.720686   4.964084
    37  H    2.720634   2.555842   4.077330   4.787782   4.813026
    38  H    3.412440   3.747807   4.572041   5.522644   4.822395
    39  O    6.673764   6.330499   7.972219   8.594569   8.647385
    40  H    7.768013   7.537717   8.856497   9.431886   9.407046
                   31         32         33         34         35
    31  H    0.000000
    32  C    2.155496   0.000000
    33  H    2.486020   1.086312   0.000000
    34  C    3.403031   1.396354   2.153114   0.000000
    35  H    4.301017   2.156513   2.478879   1.087933   0.000000
    36  H    5.959396   4.845026   5.781864   3.863027   4.273614
    37  H    5.879188   4.516682   5.444061   3.339920   3.637256
    38  H    5.889212   4.034682   4.716456   2.647365   2.407457
    39  O    9.686711   8.176013   8.926933   6.912741   6.772767
    40  H   10.336650   8.962669   9.606436   7.886097   7.753207
                   36         37         38         39         40
    36  H    0.000000
    37  H    2.463111   0.000000
    38  H    3.054211   1.776051   0.000000
    39  O    3.904919   4.774970   4.820148   0.000000
    40  H    4.880553   6.578127   6.397407   2.549990   0.000000
 Stoichiometry    C16H14F3N3O3S
 Framework group  C1[X(C16H14F3N3O3S)]
 Deg. of freedom   114
 Full point group                 C1      NOp   1
 Largest Abelian subgroup         C1      NOp   1
 Largest concise Abelian subgroup C1      NOp   1
                         Standard orientation:                         
 ---------------------------------------------------------------------
 Center     Atomic      Atomic             Coordinates (Angstroms)
 Number     Number       Type             X           Y           Z
 ---------------------------------------------------------------------
      1          6           0       -2.372743    0.334839    0.012405
      2          6           0       -1.691028   -0.886250   -0.203919
      3          6           0       -2.386514   -2.229311   -0.260596
      4          6           0       -0.324286   -0.892203   -0.396702
      5          1           0        0.204419   -1.824528   -0.566443
      6          6           0        0.412235    0.309054   -0.365080
      7          6           0       -0.272459    1.517725   -0.152418
      8          6           0        0.471864    2.801137   -0.245917
      9          6           0       -1.650365    1.519761    0.031460
     10         16           0       -4.134897    0.491836    0.260862
     11          8           0       -4.448073    1.914104    0.136109
     12          8           0       -4.815194   -0.465879   -0.606336
     13          7           0       -4.525231    0.091363    1.811779
     14          1           0       -4.080829    0.715849    2.487281
     15          1           0       -4.325426   -0.885440    2.029224
     16          7           0        1.762447    0.328000   -0.581989
     17          6           0        2.500145    1.435322    0.011138
     18          7           0        1.811677    2.667088   -0.359854
     19          1           0        2.231752   -0.572939   -0.518556
     20          9           0       -1.522336   -3.243209   -0.106576
     21          9           0       -3.008598   -2.432813   -1.431859
     22          9           0       -3.307153   -2.369281    0.713529
     23          1           0        2.358045    3.525473   -0.359863
     24          6           0        3.939969    1.472017   -0.487603
     25          6           0        4.696519    0.227304   -0.090549
     26          6           0        5.155267    0.069458    1.223197
     27          1           0        4.991399    0.866887    1.945168
     28          6           0        5.823810   -1.091594    1.607321
     29          1           0        6.178329   -1.198090    2.628657
     30          6           0        6.042234   -2.113171    0.680231
     31          1           0        6.566208   -3.016873    0.977947
     32          6           0        5.589249   -1.965318   -0.630140
     33          1           0        5.757736   -2.753770   -1.358170
     34          6           0        4.919264   -0.801127   -1.011692
     35          1           0        4.570262   -0.685985   -2.035673
     36          1           0        2.496049    1.334149    1.107649
     37          1           0        4.414716    2.357157   -0.049541
     38          1           0        3.931254    1.589197   -1.576256
     39          8           0       -0.098653    3.897855   -0.286383
     40          1           0       -2.158635    2.467599    0.175448
 ---------------------------------------------------------------------
 Rotational constants (GHZ):           0.3339686           0.0996170           0.0823271
 General basis read from cards:  (6D, 7F)
 There are   526 symmetry adapted cartesian basis functions of A   symmetry.
 There are   526 symmetry adapted basis functions of A   symmetry.
   526 basis functions,   912 primitive gaussians,   526 cartesian basis functions
    99 alpha electrons       99 beta electrons
       nuclear repulsion energy      2565.4853624776 Hartrees.
 NAtoms=   40 NActive=   40 NUniq=   40 SFac= 1.00D+00 NAtFMM=   60 NAOKFM=F Big=F
 Integral buffers will be    131072 words long.
 Raffenetti 2 integral format.
 Two-electron integral symmetry is turned on.
 One-electron integrals computed using PRISM.
 NBasis=   526 RedAO= T EigKep=  1.46D-06  NBF=   526
 NBsUse=   523 1.00D-06 EigRej=  7.96D-07 NBFU=   523
 ExpMin= 4.05D-02 ExpMax= 2.19D+04 ExpMxC= 3.30D+03 IAcc=3 IRadAn=         5 AccDes= 0.00D+00
 Harris functional with IExCor= 1009 and IRadAn=       5 diagonalized for initial guess.
 HarFok:  IExCor= 1009 AccDes= 0.00D+00 IRadAn=         5 IDoV= 1 UseB2=F ITyADJ=14
 ICtDFT=  3500011 ScaDFX=  1.000000  1.000000  1.000000  1.000000
 FoFCou: FMM=F IPFlag=           0 FMFlag=      100000 FMFlg1=           0
         NFxFlg=           0 DoJE=T BraDBF=F KetDBF=T FulRan=T
         wScrn=  0.000000 ICntrl=       500 IOpCl=  0 I1Cent=   200000004 NGrid=           0
         NMat0=    1 NMatS0=      1 NMatT0=    0 NMatD0=    1 NMtDS0=    0 NMtDT0=    0
 Petite list used in FoFCou.
 Requested convergence on RMS density matrix=1.00D-08 within 128 cycles.
 Requested convergence on MAX density matrix=1.00D-06.
 Requested convergence on             energy=1.00D-06.
 No special actions if energy rises.
 SCF Done:  E(RM062X) =  -1705.25414874     A.U. after   17 cycles
            NFock= 17  Conv=0.47D-08     -V/T= 2.0071

 **********************************************************************

            Population analysis using the SCF Density.

 **********************************************************************

 Orbital symmetries:
       Occupied  (A) (A) (A) (A) (A) (A) (A) (A) (A) (A) (A) (A)
                 (A) (A) (A) (A) (A) (A) (A) (A) (A) (A) (A) (A)
                 (A) (A) (A) (A) (A) (A) (A) (A) (A) (A) (A) (A)
                 (A) (A) (A) (A) (A) (A) (A) (A) (A) (A) (A) (A)
                 (A) (A) (A) (A) (A) (A) (A) (A) (A) (A) (A) (A)
                 (A) (A) (A) (A) (A) (A) (A) (A) (A) (A) (A) (A)
                 (A) (A) (A) (A) (A) (A) (A) (A) (A) (A) (A) (A)
                 (A) (A) (A) (A) (A) (A) (A) (A) (A) (A) (A) (A)
                 (A) (A) (A)
       Virtual   (A) (A) (A) (A) (A) (A) (A) (A) (A) (A) (A) (A)
                 (A) (A) (A) (A) (A) (A) (A) (A) (A) (A) (A) (A)
                 (A) (A) (A) (A) (A) (A) (A) (A) (A) (A) (A) (A)
                 (A) (A) (A) (A) (A) (A) (A) (A) (A) (A) (A) (A)
                 (A) (A) (A) (A) (A) (A) (A) (A) (A) (A) (A) (A)
                 (A) (A) (A) (A) (A) (A) (A) (A) (A) (A) (A) (A)
                 (A) (A) (A) (A) (A) (A) (A) (A) (A) (A) (A) (A)
                 (A) (A) (A) (A) (A) (A) (A) (A) (A) (A) (A) (A)
                 (A) (A) (A) (A) (A) (A) (A) (A) (A) (A) (A) (A)
                 (A) (A) (A) (A) (A) (A) (A) (A) (A) (A) (A) (A)
                 (A) (A) (A) (A) (A) (A) (A) (A) (A) (A) (A) (A)
                 (A) (A) (A) (A) (A) (A) (A) (A) (A) (A) (A) (A)
                 (A) (A) (A) (A) (A) (A) (A) (A) (A) (A) (A) (A)
                 (A) (A) (A) (A) (A) (A) (A) (A) (A) (A) (A) (A)
                 (A) (A) (A) (A) (A) (A) (A) (A) (A) (A) (A) (A)
                 (A) (A) (A) (A) (A) (A) (A) (A) (A) (A) (A) (A)
                 (A) (A) (A) (A) (A) (A) (A) (A) (A) (A) (A) (A)
                 (A) (A) (A) (A) (A) (A) (A) (A) (A) (A) (A) (A)
                 (A) (A) (A) (A) (A) (A) (A) (A) (A) (A) (A) (A)
                 (A) (A) (A) (A) (A) (A) (A) (A) (A) (A) (A) (A)
                 (A) (A) (A) (A) (A) (A) (A) (A) (A) (A) (A) (A)
                 (A) (A) (A) (A) (A) (A) (A) (A) (A) (A) (A) (A)
                 (A) (A) (A) (A) (A) (A) (A) (A) (A) (A) (A) (A)
                 (A) (A) (A) (A) (A) (A) (A) (A) (A) (A) (A) (A)
                 (A) (A) (A) (A) (A) (A) (A) (A) (A) (A) (A) (A)
                 (A) (A) (A) (A) (A) (A) (A) (A) (A) (A) (A) (A)
                 (A) (A) (A) (A) (A) (A) (A) (A) (A) (A) (A) (A)
                 (A) (A) (A) (A) (A) (A) (A) (A) (A) (A) (A) (A)
                 (A) (A) (A) (A) (A) (A) (A) (A) (A) (A) (A) (A)
                 (A) (A) (A) (A) (A) (A) (A) (A) (A) (A) (A) (A)
                 (A) (A) (A) (A) (A) (A) (A) (A) (A) (A) (A) (A)
                 (A) (A) (A) (A) (A) (A) (A) (A) (A) (A) (A) (A)
                 (A) (A) (A) (A) (A) (A) (A) (A) (A) (A) (A) (A)
                 (A) (A) (A) (A) (A) (A) (A) (A) (A) (A) (A) (A)
                 (A) (A) (A) (A) (A) (A) (A) (A) (A) (A) (A) (A)
                 (A) (A) (A) (A)
 The electronic state is 1-A.
 Alpha  occ. eigenvalues --  -90.17003 -25.31854 -25.31829 -25.30375 -19.63956
 Alpha  occ. eigenvalues --  -19.63788 -19.63182 -14.82338 -14.81745 -14.80745
 Alpha  occ. eigenvalues --  -10.83190 -10.68120 -10.66933 -10.64802 -10.62828
 Alpha  occ. eigenvalues --  -10.61506 -10.60272 -10.59940 -10.59760 -10.59594
 Alpha  occ. eigenvalues --  -10.59583 -10.58696 -10.58677 -10.58592 -10.58568
 Alpha  occ. eigenvalues --  -10.58395  -8.47900  -6.40116  -6.40053  -6.40006
 Alpha  occ. eigenvalues --   -1.48259  -1.39225  -1.38185  -1.24224  -1.17952
 Alpha  occ. eigenvalues --   -1.12411  -1.12333  -1.04807  -1.03332  -1.00969
 Alpha  occ. eigenvalues --   -0.99699  -0.93782  -0.91875  -0.89105  -0.87470
 Alpha  occ. eigenvalues --   -0.84622  -0.84174  -0.78158  -0.77368  -0.75869
 Alpha  occ. eigenvalues --   -0.73024  -0.72274  -0.70949  -0.70482  -0.70147
 Alpha  occ. eigenvalues --   -0.69382  -0.68062  -0.64427  -0.63778  -0.62619
 Alpha  occ. eigenvalues --   -0.62153  -0.61589  -0.59621  -0.58855  -0.58289
 Alpha  occ. eigenvalues --   -0.57384  -0.56085  -0.55907  -0.55670  -0.55497
 Alpha  occ. eigenvalues --   -0.54480  -0.54341  -0.53314  -0.52858  -0.52192
 Alpha  occ. eigenvalues --   -0.51907  -0.51446  -0.51153  -0.50687  -0.50170
 Alpha  occ. eigenvalues --   -0.48837  -0.48314  -0.47714  -0.45994  -0.45051
 Alpha  occ. eigenvalues --   -0.43240  -0.43077  -0.42615  -0.41420  -0.39508
 Alpha  occ. eigenvalues --   -0.38894  -0.38004  -0.37389  -0.35650  -0.35430
 Alpha  occ. eigenvalues --   -0.34524  -0.33793  -0.33184  -0.30146
 Alpha virt. eigenvalues --   -0.05241  -0.02314  -0.01662  -0.01177  -0.01162
 Alpha virt. eigenvalues --    0.00179   0.00337   0.00860   0.01483   0.02356
 Alpha virt. eigenvalues --    0.02663   0.02991   0.03064   0.04166   0.04491
 Alpha virt. eigenvalues --    0.04957   0.05262   0.05472   0.06190   0.06271
 Alpha virt. eigenvalues --    0.06515   0.06978   0.07848   0.08088   0.08209
 Alpha virt. eigenvalues --    0.08528   0.09186   0.09272   0.09578   0.09967
 Alpha virt. eigenvalues --    0.10507   0.10751   0.11099   0.11321   0.11608
 Alpha virt. eigenvalues --    0.12065   0.12174   0.12706   0.12767   0.13195
 Alpha virt. eigenvalues --    0.13636   0.14156   0.14364   0.14464   0.14741
 Alpha virt. eigenvalues --    0.15218   0.15352   0.15842   0.16088   0.16493
 Alpha virt. eigenvalues --    0.16835   0.17139   0.17378   0.17683   0.18200
 Alpha virt. eigenvalues --    0.18316   0.18735   0.18823   0.19157   0.19379
 Alpha virt. eigenvalues --    0.19580   0.19969   0.20215   0.20472   0.20531
 Alpha virt. eigenvalues --    0.20783   0.21012   0.21533   0.21788   0.22104
 Alpha virt. eigenvalues --    0.22182   0.22454   0.22741   0.23532   0.23768
 Alpha virt. eigenvalues --    0.23875   0.24379   0.24675   0.25088   0.25257
 Alpha virt. eigenvalues --    0.25607   0.25763   0.26129   0.26177   0.26643
 Alpha virt. eigenvalues --    0.26962   0.27006   0.27628   0.27994   0.28360
 Alpha virt. eigenvalues --    0.28367   0.28698   0.29063   0.29583   0.29831
 Alpha virt. eigenvalues --    0.29940   0.30516   0.31017   0.31282   0.31866
 Alpha virt. eigenvalues --    0.32259   0.32372   0.32731   0.32969   0.33184
 Alpha virt. eigenvalues --    0.33826   0.34209   0.34658   0.34920   0.35180
 Alpha virt. eigenvalues --    0.35375   0.35630   0.35922   0.36252   0.36593
 Alpha virt. eigenvalues --    0.36982   0.37426   0.37782   0.38105   0.38491
 Alpha virt. eigenvalues --    0.38976   0.39098   0.40276   0.40419   0.40848
 Alpha virt. eigenvalues --    0.41054   0.41596   0.41952   0.42444   0.42763
 Alpha virt. eigenvalues --    0.42983   0.44559   0.45043   0.45489   0.46164
 Alpha virt. eigenvalues --    0.46550   0.47910   0.48328   0.49334   0.49981
 Alpha virt. eigenvalues --    0.50484   0.51667   0.51986   0.53434   0.54909
 Alpha virt. eigenvalues --    0.55793   0.59032   0.59580   0.61017   0.63510
 Alpha virt. eigenvalues --    0.64201   0.64966   0.67235   0.68346   0.69125
 Alpha virt. eigenvalues --    0.71058   0.71237   0.71495   0.71682   0.72756
 Alpha virt. eigenvalues --    0.73251   0.73692   0.75114   0.75587   0.76386
 Alpha virt. eigenvalues --    0.76672   0.77074   0.77851   0.78071   0.80067
 Alpha virt. eigenvalues --    0.80515   0.81262   0.81580   0.82717   0.83007
 Alpha virt. eigenvalues --    0.84199   0.84497   0.85496   0.85580   0.86298
 Alpha virt. eigenvalues --    0.87639   0.88609   0.89318   0.90313   0.91660
 Alpha virt. eigenvalues --    0.92815   0.92966   0.93989   0.94224   0.94853
 Alpha virt. eigenvalues --    0.95420   0.96577   0.97366   0.97714   0.98296
 Alpha virt. eigenvalues --    0.99506   1.00463   1.01694   1.01987   1.03333
 Alpha virt. eigenvalues --    1.04582   1.05999   1.06294   1.06759   1.07304
 Alpha virt. eigenvalues --    1.07807   1.08366   1.09590   1.10461   1.11135
 Alpha virt. eigenvalues --    1.12167   1.13096   1.13551   1.14390   1.15472
 Alpha virt. eigenvalues --    1.15912   1.16399   1.17264   1.17387   1.18023
 Alpha virt. eigenvalues --    1.18872   1.19696   1.20875   1.21201   1.22496
 Alpha virt. eigenvalues --    1.23681   1.24337   1.25571   1.26172   1.26758
 Alpha virt. eigenvalues --    1.28102   1.29139   1.29666   1.30383   1.31714
 Alpha virt. eigenvalues --    1.31999   1.33446   1.35886   1.37652   1.38040
 Alpha virt. eigenvalues --    1.38958   1.39309   1.39536   1.40371   1.41112
 Alpha virt. eigenvalues --    1.41540   1.42477   1.43080   1.43618   1.45373
 Alpha virt. eigenvalues --    1.46458   1.46860   1.47923   1.48173   1.49963
 Alpha virt. eigenvalues --    1.50378   1.50587   1.51084   1.52450   1.53297
 Alpha virt. eigenvalues --    1.53418   1.53827   1.54962   1.58437   1.60004
 Alpha virt. eigenvalues --    1.60995   1.61491   1.64203   1.66189   1.67137
 Alpha virt. eigenvalues --    1.67661   1.69336   1.70913   1.71415   1.72592
 Alpha virt. eigenvalues --    1.73229   1.74423   1.75216   1.75943   1.76171
 Alpha virt. eigenvalues --    1.77251   1.77730   1.78558   1.79208   1.80431
 Alpha virt. eigenvalues --    1.81465   1.81763   1.83097   1.84082   1.85440
 Alpha virt. eigenvalues --    1.85892   1.86804   1.87262   1.88082   1.88808
 Alpha virt. eigenvalues --    1.89526   1.90168   1.90487   1.91729   1.92110
 Alpha virt. eigenvalues --    1.92766   1.93118   1.94220   1.95654   1.96401
 Alpha virt. eigenvalues --    1.96955   1.97188   1.98137   1.99817   2.00678
 Alpha virt. eigenvalues --    2.00971   2.01427   2.03329   2.04009   2.05118
 Alpha virt. eigenvalues --    2.05927   2.06726   2.07824   2.08824   2.09177
 Alpha virt. eigenvalues --    2.11104   2.11259   2.12551   2.12780   2.13363
 Alpha virt. eigenvalues --    2.14000   2.14701   2.14946   2.15718   2.16007
 Alpha virt. eigenvalues --    2.16709   2.17976   2.18774   2.19480   2.20602
 Alpha virt. eigenvalues --    2.22144   2.22618   2.23391   2.24851   2.25516
 Alpha virt. eigenvalues --    2.26269   2.28841   2.29351   2.30780   2.31212
 Alpha virt. eigenvalues --    2.32639   2.34267   2.37622   2.38063   2.39981
 Alpha virt. eigenvalues --    2.41145   2.41433   2.44993   2.46071   2.47251
 Alpha virt. eigenvalues --    2.47883   2.50627   2.51074   2.52553   2.55266
 Alpha virt. eigenvalues --    2.56384   2.58417   2.59617   2.60428   2.62092
 Alpha virt. eigenvalues --    2.64009   2.65768   2.66526   2.69690   2.71162
 Alpha virt. eigenvalues --    2.72965   2.73677   2.74824   2.75555   2.75954
 Alpha virt. eigenvalues --    2.78086   2.79023   2.80656   2.83551   2.84564
 Alpha virt. eigenvalues --    2.89159   2.90434   2.90984   2.94606   2.95904
 Alpha virt. eigenvalues --    2.98525   2.99430   3.04535   3.04955   3.09615
 Alpha virt. eigenvalues --    3.14071   3.20616   3.20784   3.28467   3.30312
 Alpha virt. eigenvalues --    3.33235   3.38710   3.41189   3.94620   4.10230
 Alpha virt. eigenvalues --    4.20800   4.25099   4.26569   4.27320   4.29429
 Alpha virt. eigenvalues --    4.32010   4.32650   4.35633   4.36019   4.37576
 Alpha virt. eigenvalues --    4.38620   4.39916   4.42662   4.49041   4.49609
 Alpha virt. eigenvalues --    4.53471   4.61833   4.64291   4.71989   4.76271
 Alpha virt. eigenvalues --    4.86004   5.85025   6.10453   7.05462
          Condensed to atoms (all electrons):
               1          2          3          4          5          6
     1  C   43.926018 -19.644961   0.120455   7.704159  -0.038962  -2.599586
     2  C  -19.644961  42.608517   0.094133 -15.207073   0.019057 -10.272776
     3  C    0.120455   0.094133  17.294330  -8.005908   0.036958  -2.850923
     4  C    7.704159 -15.207073  -8.005908  25.625792   0.235499   9.160758
     5  H   -0.038962   0.019057   0.036958   0.235499   0.458033  -0.014338
     6  C   -2.599586 -10.272776  -2.850923   9.160758  -0.014338  25.698831
     7  C  -19.335810  12.948749   3.932578 -18.054305   0.072391 -14.387585
     8  C   -3.112084   4.168654   0.310304  -2.804098   0.010816  -3.205566
     9  C    3.030793  -7.167652  -3.301003   7.213035  -0.020773   5.455475
    10  S    0.607385  -2.226968  -3.571619   2.688056  -0.001829   0.761448
    11  O   -0.009549  -0.345910  -0.107818   0.137405   0.000012   0.036852
    12  O   -0.708899   0.059830  -0.390067   0.163495  -0.000017   0.069124
    13  N   -0.468631  -0.117290   0.565617  -0.140171   0.000058  -0.037067
    14  H   -0.039255   0.014135  -0.018789   0.003534  -0.000000   0.003528
    15  H   -0.043578   0.038056  -0.086738   0.027353  -0.000000   0.008312
    16  N    0.173588   0.517494   0.047316  -0.334608  -0.010922  -1.103587
    17  C   -1.265229  -0.552099  -0.070162  -0.687208  -0.001910  -0.833560
    18  N   -0.400094   0.337171   0.018185  -0.034216   0.000626   0.740064
    19  H    0.004131   0.044444   0.005410  -0.007965   0.005352  -0.083443
    20  F   -0.027350  -0.194507  -0.019989   0.200779   0.004612   0.113739
    21  F   -0.094563   0.234148   0.177129  -0.110178  -0.000279  -0.052610
    22  F    0.125745  -0.118965   0.166901  -0.073788   0.000408  -0.069526
    23  H    0.004401  -0.000715   0.000060   0.003045  -0.000000  -0.017432
    24  C   -0.150309   0.502397   0.038487  -0.439020   0.001662  -0.731160
    25  C   -0.082872   0.036065  -0.002991   0.112855  -0.000056   0.355264
    26  C   -0.038480   0.043221  -0.003345   0.049716   0.000011  -0.110497
    27  H    0.000149  -0.000296  -0.000010   0.000194   0.000000  -0.002841
    28  C    0.002827  -0.002992  -0.001680   0.008873  -0.000099   0.035149
    29  H    0.000000   0.000009   0.000000   0.000045  -0.000000   0.000035
    30  C    0.000453   0.015482   0.002178  -0.015667   0.000106  -0.001539
    31  H    0.000001  -0.000023  -0.000000  -0.000088   0.000000   0.000075
    32  C   -0.008711   0.015274   0.000859   0.022028   0.000687   0.015045
    33  H   -0.000003   0.000067  -0.000003   0.000758   0.000000  -0.000989
    34  C    0.090342  -0.134587   0.001851  -0.110648  -0.000406   0.132950
    35  H   -0.000023   0.001206   0.000009   0.006753  -0.000001  -0.010267
    36  H    0.007587  -0.017938  -0.000540   0.033539  -0.000001   0.032344
    37  H    0.000223  -0.000987  -0.000039   0.002721   0.000000   0.008934
    38  H   -0.000372   0.001296   0.000047  -0.001162  -0.000000  -0.007747
    39  O    0.099606  -0.054207  -0.005338   0.039179   0.000011   0.061981
    40  H   -0.182372   0.076736   0.012776  -0.031347   0.000012  -0.015910
               7          8          9         10         11         12
     1  C  -19.335810  -3.112084   3.030793   0.607385  -0.009549  -0.708899
     2  C   12.948749   4.168654  -7.167652  -2.226968  -0.345910   0.059830
     3  C    3.932578   0.310304  -3.301003  -3.571619  -0.107818  -0.390067
     4  C  -18.054305  -2.804098   7.213035   2.688056   0.137405   0.163495
     5  H    0.072391   0.010816  -0.020773  -0.001829   0.000012  -0.000017
     6  C  -14.387585  -3.205566   5.455475   0.761448   0.036852   0.069124
     7  C   56.000823  -1.707724 -13.223983  -4.929822  -0.441674  -0.014314
     8  C   -1.707724  14.342692  -2.056885  -0.556429  -0.035468  -0.014760
     9  C  -13.223983  -2.056885  15.148010   1.959022   0.219941   0.420732
    10  S   -4.929822  -0.556429   1.959022  19.320334   0.602237   0.506775
    11  O   -0.441674  -0.035468   0.219941   0.602237   8.760185  -0.141556
    12  O   -0.014314  -0.014760   0.420732   0.506775  -0.141556   8.714644
    13  N    0.247488  -0.010545   0.175664  -0.914352  -0.129055  -0.124294
    14  H   -0.061566  -0.002861  -0.025536   0.157244  -0.003122   0.010639
    15  H   -0.000200  -0.000111   0.026177   0.075395   0.012594  -0.000058
    16  N    0.603006   0.244624  -0.150589   0.005405   0.000063   0.000296
    17  C    4.407646  -2.195265  -1.356680  -0.083447  -0.005713   0.000745
    18  N   -1.069993   0.383731   0.114464  -0.021930  -0.001174  -0.000378
    19  H    0.033679   0.014552  -0.005397   0.000005   0.000000   0.000000
    20  F    0.009109  -0.000179   0.021074   0.005315   0.000098  -0.000531
    21  F    0.036423   0.004302   0.001023  -0.035958  -0.000626  -0.021435
    22  F    0.046059   0.003714  -0.037696   0.064287   0.000701  -0.031930
    23  H    0.146843  -0.108408   0.002155   0.000006   0.000000   0.000000
    24  C   -0.144621   0.751910  -0.033156  -0.007389  -0.000179  -0.000132
    25  C   -0.408275   0.029403   0.014830  -0.002249  -0.000047   0.000000
    26  C   -0.212589  -0.016317   0.013728  -0.000822   0.000001  -0.000008
    27  H    0.002189   0.001586  -0.000017   0.000001  -0.000000   0.000000
    28  C   -0.042601   0.016322   0.006076   0.000163  -0.000000   0.000001
    29  H    0.000008   0.000030  -0.000000   0.000000  -0.000000   0.000000
    30  C    0.010882   0.005836  -0.000940  -0.000028   0.000000  -0.000000
    31  H    0.000001  -0.000011   0.000001   0.000000   0.000000   0.000000
    32  C   -0.052696   0.022307   0.002827  -0.000128  -0.000001  -0.000000
    33  H   -0.000083   0.000036   0.000003  -0.000000  -0.000000  -0.000000
    34  C    0.327784   0.017145  -0.001832   0.001932   0.000014   0.000010
    35  H   -0.000731   0.001115   0.000118  -0.000001  -0.000000  -0.000000
    36  H    0.017111   0.017298   0.005319  -0.000046   0.000000  -0.000000
    37  H   -0.012918   0.009460   0.001945  -0.000003  -0.000000  -0.000000
    38  H    0.008101   0.012903  -0.001907  -0.000006  -0.000000  -0.000000
    39  O   -0.077137   0.192330  -0.029519   0.015420   0.000718   0.000185
    40  H    0.186404  -0.021366   0.296877  -0.031554  -0.005905   0.000295
              13         14         15         16         17         18
     1  C   -0.468631  -0.039255  -0.043578   0.173588  -1.265229  -0.400094
     2  C   -0.117290   0.014135   0.038056   0.517494  -0.552099   0.337171
     3  C    0.565617  -0.018789  -0.086738   0.047316  -0.070162   0.018185
     4  C   -0.140171   0.003534   0.027353  -0.334608  -0.687208  -0.034216
     5  H    0.000058  -0.000000  -0.000000  -0.010922  -0.001910   0.000626
     6  C   -0.037067   0.003528   0.008312  -1.103587  -0.833560   0.740064
     7  C    0.247488  -0.061566  -0.000200   0.603006   4.407646  -1.069993
     8  C   -0.010545  -0.002861  -0.000111   0.244624  -2.195265   0.383731
     9  C    0.175664  -0.025536   0.026177  -0.150589  -1.356680   0.114464
    10  S   -0.914352   0.157244   0.075395   0.005405  -0.083447  -0.021930
    11  O   -0.129055  -0.003122   0.012594   0.000063  -0.005713  -0.001174
    12  O   -0.124294   0.010639  -0.000058   0.000296   0.000745  -0.000378
    13  N    8.523934   0.221130   0.183844  -0.000799  -0.001607  -0.000877
    14  H    0.221130   0.315665  -0.019758  -0.000003  -0.000304  -0.000006
    15  H    0.183844  -0.019758   0.314990  -0.000003   0.000075   0.000001
    16  N   -0.000799  -0.000003  -0.000003   7.557922  -0.418648  -0.051568
    17  C   -0.001607  -0.000304   0.000075  -0.418648  11.760961  -0.415627
    18  N   -0.000877  -0.000006   0.000001  -0.051568  -0.415627   7.802670
    19  H    0.000001  -0.000000  -0.000000   0.285069  -0.083247   0.007888
    20  F   -0.001238  -0.000010   0.000211  -0.000803   0.000263   0.000082
    21  F    0.005349  -0.000015  -0.000382   0.000116  -0.001302   0.000040
    22  F    0.014653  -0.000518  -0.000352   0.000795  -0.000703  -0.000059
    23  H    0.000000  -0.000000   0.000000   0.009463  -0.016313   0.251682
    24  C   -0.000246  -0.000003  -0.000002   0.114921  -2.397347  -0.000317
    25  C    0.000031  -0.000000  -0.000000  -0.075362   1.180112  -0.017154
    26  C   -0.000047  -0.000000   0.000000  -0.062211  -0.144219   0.025035
    27  H   -0.000000  -0.000000   0.000000  -0.002219   0.044480  -0.000801
    28  C   -0.000005   0.000000  -0.000000   0.020761  -0.099821   0.007662
    29  H    0.000000  -0.000000  -0.000000   0.000028   0.001619  -0.000006
    30  C    0.000001  -0.000000  -0.000000   0.006398  -0.091758   0.001082
    31  H   -0.000000   0.000000   0.000000   0.000001  -0.000780  -0.000001
    32  C   -0.000007   0.000000   0.000000   0.014654  -0.038760   0.019288
    33  H    0.000000  -0.000000  -0.000000  -0.000030   0.001408  -0.000011
    34  C    0.000055  -0.000000  -0.000000   0.086686  -0.464023   0.034827
    35  H    0.000000  -0.000000  -0.000000   0.007523   0.001603  -0.000080
    36  H    0.000011   0.000000  -0.000000  -0.071049   0.414617  -0.056263
    37  H    0.000000  -0.000000   0.000000   0.001961   0.001396   0.001017
    38  H    0.000000   0.000000  -0.000000   0.015950  -0.107090   0.012246
    39  O   -0.000129   0.000016   0.000001  -0.013069   0.114999  -0.127672
    40  H    0.002945  -0.000112  -0.000017  -0.000462   0.005380   0.000978
              19         20         21         22         23         24
     1  C    0.004131  -0.027350  -0.094563   0.125745   0.004401  -0.150309
     2  C    0.044444  -0.194507   0.234148  -0.118965  -0.000715   0.502397
     3  C    0.005410  -0.019989   0.177129   0.166901   0.000060   0.038487
     4  C   -0.007965   0.200779  -0.110178  -0.073788   0.003045  -0.439020
     5  H    0.005352   0.004612  -0.000279   0.000408  -0.000000   0.001662
     6  C   -0.083443   0.113739  -0.052610  -0.069526  -0.017432  -0.731160
     7  C    0.033679   0.009109   0.036423   0.046059   0.146843  -0.144621
     8  C    0.014552  -0.000179   0.004302   0.003714  -0.108408   0.751910
     9  C   -0.005397   0.021074   0.001023  -0.037696   0.002155  -0.033156
    10  S    0.000005   0.005315  -0.035958   0.064287   0.000006  -0.007389
    11  O    0.000000   0.000098  -0.000626   0.000701   0.000000  -0.000179
    12  O    0.000000  -0.000531  -0.021435  -0.031930   0.000000  -0.000132
    13  N    0.000001  -0.001238   0.005349   0.014653   0.000000  -0.000246
    14  H   -0.000000  -0.000010  -0.000015  -0.000518  -0.000000  -0.000003
    15  H   -0.000000   0.000211  -0.000382  -0.000352   0.000000  -0.000002
    16  N    0.285069  -0.000803   0.000116   0.000795   0.009463   0.114921
    17  C   -0.083247   0.000263  -0.001302  -0.000703  -0.016313  -2.397347
    18  N    0.007888   0.000082   0.000040  -0.000059   0.251682  -0.000317
    19  H    0.327252  -0.000038   0.000001   0.000003  -0.000055  -0.014463
    20  F   -0.000038   9.298679  -0.048792  -0.039208   0.000000  -0.000129
    21  F    0.000001  -0.048792   9.170977  -0.044040   0.000000   0.000024
    22  F    0.000003  -0.039208  -0.044040   9.317771  -0.000000   0.000087
    23  H   -0.000055   0.000000   0.000000  -0.000000   0.288084  -0.043448
    24  C   -0.014463  -0.000129   0.000024   0.000087  -0.043448  10.858207
    25  C   -0.009580  -0.000000   0.000020   0.000003   0.001171  -3.322466
    26  C   -0.025611   0.000057   0.000000  -0.000019   0.005802   0.811449
    27  H    0.000024  -0.000000  -0.000000   0.000000  -0.000002  -0.034163
    28  C    0.000489   0.000000  -0.000000   0.000000   0.000270  -0.275605
    29  H   -0.000001   0.000000  -0.000000  -0.000000  -0.000000  -0.003613
    30  C    0.003495  -0.000011  -0.000000   0.000000   0.000012   0.126298
    31  H    0.000000  -0.000000   0.000000   0.000000  -0.000000   0.003949
    32  C   -0.006492  -0.000068  -0.000006  -0.000002   0.000165  -0.369935
    33  H    0.000001   0.000000  -0.000000  -0.000000   0.000000  -0.003880
    34  C    0.069135   0.000146  -0.000003   0.000008  -0.001987   0.660057
    35  H   -0.000772   0.000000  -0.000000   0.000000   0.000000  -0.028852
    36  H    0.001032   0.000002   0.000000  -0.000000   0.001919  -0.237855
    37  H   -0.000021  -0.000000   0.000000  -0.000000   0.003092   0.309723
    38  H    0.000077   0.000000   0.000000  -0.000000  -0.000273   0.478595
    39  O    0.000060   0.000000  -0.000007  -0.000004   0.010577  -0.022049
    40  H    0.000002   0.000011   0.000008   0.000029  -0.000006  -0.000072
              25         26         27         28         29         30
     1  C   -0.082872  -0.038480   0.000149   0.002827   0.000000   0.000453
     2  C    0.036065   0.043221  -0.000296  -0.002992   0.000009   0.015482
     3  C   -0.002991  -0.003345  -0.000010  -0.001680   0.000000   0.002178
     4  C    0.112855   0.049716   0.000194   0.008873   0.000045  -0.015667
     5  H   -0.000056   0.000011   0.000000  -0.000099  -0.000000   0.000106
     6  C    0.355264  -0.110497  -0.002841   0.035149   0.000035  -0.001539
     7  C   -0.408275  -0.212589   0.002189  -0.042601   0.000008   0.010882
     8  C    0.029403  -0.016317   0.001586   0.016322   0.000030   0.005836
     9  C    0.014830   0.013728  -0.000017   0.006076  -0.000000  -0.000940
    10  S   -0.002249  -0.000822   0.000001   0.000163   0.000000  -0.000028
    11  O   -0.000047   0.000001  -0.000000  -0.000000  -0.000000   0.000000
    12  O    0.000000  -0.000008   0.000000   0.000001   0.000000  -0.000000
    13  N    0.000031  -0.000047  -0.000000  -0.000005   0.000000   0.000001
    14  H   -0.000000  -0.000000  -0.000000   0.000000  -0.000000  -0.000000
    15  H   -0.000000   0.000000   0.000000  -0.000000  -0.000000  -0.000000
    16  N   -0.075362  -0.062211  -0.002219   0.020761   0.000028   0.006398
    17  C    1.180112  -0.144219   0.044480  -0.099821   0.001619  -0.091758
    18  N   -0.017154   0.025035  -0.000801   0.007662  -0.000006   0.001082
    19  H   -0.009580  -0.025611   0.000024   0.000489  -0.000001   0.003495
    20  F   -0.000000   0.000057  -0.000000   0.000000   0.000000  -0.000011
    21  F    0.000020   0.000000  -0.000000  -0.000000  -0.000000  -0.000000
    22  F    0.000003  -0.000019   0.000000   0.000000  -0.000000   0.000000
    23  H    0.001171   0.005802  -0.000002   0.000270  -0.000000   0.000012
    24  C   -3.322466   0.811449  -0.034163  -0.275605  -0.003613   0.126298
    25  C   12.343794  -1.519484   0.152646  -0.155036   0.038755  -0.681226
    26  C   -1.519484  11.430502   0.090375   0.219779   0.008522   0.100834
    27  H    0.152646   0.090375   0.500364   0.002159  -0.003723  -0.011155
    28  C   -0.155036   0.219779   0.002159   6.093245   0.269922   0.509230
    29  H    0.038755   0.008522  -0.003723   0.269922   0.483169  -0.006345
    30  C   -0.681226   0.100834  -0.011155   0.509230  -0.006345   5.200229
    31  H    0.000137   0.005910  -0.000130  -0.004756  -0.003659   0.294601
    32  C    0.408877   0.259367  -0.007576  -0.008992   0.001516   0.432833
    33  H    0.032049  -0.009038   0.000015   0.007811  -0.000130   0.000544
    34  C   -2.387510  -4.927234   0.060060  -0.348802  -0.002892   0.225642
    35  H    0.087652   0.039252  -0.000133  -0.006295   0.000014  -0.000800
    36  H    0.104119  -0.119825  -0.000373  -0.025396   0.000004   0.000549
    37  H   -0.045667   0.067460   0.001002   0.011238  -0.000005   0.000026
    38  H   -0.150207  -0.051907   0.000002  -0.008310   0.000002   0.002366
    39  O   -0.000860   0.001904  -0.000006   0.000137  -0.000000   0.000014
    40  H    0.000071  -0.000016   0.000000  -0.000000   0.000000  -0.000000
              31         32         33         34         35         36
     1  C    0.000001  -0.008711  -0.000003   0.090342  -0.000023   0.007587
     2  C   -0.000023   0.015274   0.000067  -0.134587   0.001206  -0.017938
     3  C   -0.000000   0.000859  -0.000003   0.001851   0.000009  -0.000540
     4  C   -0.000088   0.022028   0.000758  -0.110648   0.006753   0.033539
     5  H    0.000000   0.000687   0.000000  -0.000406  -0.000001  -0.000001
     6  C    0.000075   0.015045  -0.000989   0.132950  -0.010267   0.032344
     7  C    0.000001  -0.052696  -0.000083   0.327784  -0.000731   0.017111
     8  C   -0.000011   0.022307   0.000036   0.017145   0.001115   0.017298
     9  C    0.000001   0.002827   0.000003  -0.001832   0.000118   0.005319
    10  S    0.000000  -0.000128  -0.000000   0.001932  -0.000001  -0.000046
    11  O    0.000000  -0.000001  -0.000000   0.000014  -0.000000   0.000000
    12  O    0.000000  -0.000000  -0.000000   0.000010  -0.000000  -0.000000
    13  N   -0.000000  -0.000007   0.000000   0.000055   0.000000   0.000011
    14  H    0.000000   0.000000  -0.000000  -0.000000  -0.000000   0.000000
    15  H    0.000000   0.000000  -0.000000  -0.000000  -0.000000  -0.000000
    16  N    0.000001   0.014654  -0.000030   0.086686   0.007523  -0.071049
    17  C   -0.000780  -0.038760   0.001408  -0.464023   0.001603   0.414617
    18  N   -0.000001   0.019288  -0.000011   0.034827  -0.000080  -0.056263
    19  H    0.000000  -0.006492   0.000001   0.069135  -0.000772   0.001032
    20  F   -0.000000  -0.000068   0.000000   0.000146   0.000000   0.000002
    21  F    0.000000  -0.000006  -0.000000  -0.000003  -0.000000   0.000000
    22  F    0.000000  -0.000002  -0.000000   0.000008   0.000000  -0.000000
    23  H   -0.000000   0.000165   0.000000  -0.001987   0.000000   0.001919
    24  C    0.003949  -0.369935  -0.003880   0.660057  -0.028852  -0.237855
    25  C    0.000137   0.408877   0.032049  -2.387510   0.087652   0.104119
    26  C    0.005910   0.259367  -0.009038  -4.927234   0.039252  -0.119825
    27  H   -0.000130  -0.007576   0.000015   0.060060  -0.000133  -0.000373
    28  C   -0.004756  -0.008992   0.007811  -0.348802  -0.006295  -0.025396
    29  H   -0.003659   0.001516  -0.000130  -0.002892   0.000014   0.000004
    30  C    0.294601   0.432833   0.000544   0.225642  -0.000800   0.000549
    31  H    0.483131   0.001419  -0.003673   0.007861  -0.000130  -0.000000
    32  C    0.001419   6.049908   0.298509  -0.836879   0.024723  -0.001566
    33  H   -0.003673   0.298509   0.481680  -0.019439  -0.003551   0.000000
    34  C    0.007861  -0.836879  -0.019439  13.317228   0.171688   0.108772
    35  H   -0.000130   0.024723  -0.003551   0.171688   0.488520  -0.000019
    36  H   -0.000000  -0.001566   0.000000   0.108772  -0.000019   0.551925
    37  H   -0.000000   0.006030   0.000002  -0.062818   0.000030  -0.003497
    38  H   -0.000000   0.002466  -0.000005   0.102908   0.002637   0.003869
    39  O    0.000000  -0.000001  -0.000000  -0.001499  -0.000001  -0.000009
    40  H   -0.000000   0.000001  -0.000000  -0.000003   0.000000  -0.000002
              37         38         39         40
     1  C    0.000223  -0.000372   0.099606  -0.182372
     2  C   -0.000987   0.001296  -0.054207   0.076736
     3  C   -0.000039   0.000047  -0.005338   0.012776
     4  C    0.002721  -0.001162   0.039179  -0.031347
     5  H    0.000000  -0.000000   0.000011   0.000012
     6  C    0.008934  -0.007747   0.061981  -0.015910
     7  C   -0.012918   0.008101  -0.077137   0.186404
     8  C    0.009460   0.012903   0.192330  -0.021366
     9  C    0.001945  -0.001907  -0.029519   0.296877
    10  S   -0.000003  -0.000006   0.015420  -0.031554
    11  O   -0.000000  -0.000000   0.000718  -0.005905
    12  O   -0.000000  -0.000000   0.000185   0.000295
    13  N    0.000000   0.000000  -0.000129   0.002945
    14  H   -0.000000   0.000000   0.000016  -0.000112
    15  H    0.000000  -0.000000   0.000001  -0.000017
    16  N    0.001961   0.015950  -0.013069  -0.000462
    17  C    0.001396  -0.107090   0.114999   0.005380
    18  N    0.001017   0.012246  -0.127672   0.000978
    19  H   -0.000021   0.000077   0.000060   0.000002
    20  F   -0.000000   0.000000   0.000000   0.000011
    21  F    0.000000   0.000000  -0.000007   0.000008
    22  F   -0.000000  -0.000000  -0.000004   0.000029
    23  H    0.003092  -0.000273   0.010577  -0.000006
    24  C    0.309723   0.478595  -0.022049  -0.000072
    25  C   -0.045667  -0.150207  -0.000860   0.000071
    26  C    0.067460  -0.051907   0.001904  -0.000016
    27  H    0.001002   0.000002  -0.000006   0.000000
    28  C    0.011238  -0.008310   0.000137  -0.000000
    29  H   -0.000005   0.000002  -0.000000   0.000000
    30  C    0.000026   0.002366   0.000014  -0.000000
    31  H   -0.000000  -0.000000   0.000000  -0.000000
    32  C    0.006030   0.002466  -0.000001   0.000001
    33  H    0.000002  -0.000005  -0.000000  -0.000000
    34  C   -0.062818   0.102908  -0.001499  -0.000003
    35  H    0.000030   0.002637  -0.000001   0.000000
    36  H   -0.003497   0.003869  -0.000009  -0.000002
    37  H    0.485564  -0.025734   0.000274  -0.000000
    38  H   -0.025734   0.448659  -0.000085   0.000000
    39  O    0.000274  -0.000085   8.289139   0.005481
    40  H   -0.000000   0.000000   0.005481   0.383941
 Mulliken charges:
               1
     1  C   -1.646172
     2  C    0.283803
     3  C    1.611381
     4  C   -1.382118
     5  H    0.243284
     6  C   -0.280959
     7  C    1.141351
     8  C    1.287003
     9  C   -0.715728
    10  S    1.614151
    11  O   -0.543023
    12  O   -0.498394
    13  N   -0.994421
    14  H    0.445966
    15  H    0.464193
    16  N   -0.418111
    17  C   -0.602480
    18  N   -0.560515
    19  H    0.434983
    20  F   -0.321322
    21  F   -0.219363
    22  F   -0.324354
    23  H    0.459891
    24  C   -0.397353
    25  C   -0.036809
    26  C    0.068745
    27  H    0.208199
    28  C   -0.231725
    29  H    0.216696
    30  C   -0.129622
    31  H    0.216166
    32  C   -0.266963
    33  H    0.217956
    34  C   -0.116536
    35  H    0.218814
    36  H    0.234361
    37  H    0.239589
    38  H    0.262686
    39  O   -0.500442
    40  H    0.317197
 Sum of Mulliken charges =  -0.00000
 Mulliken charges with hydrogens summed into heavy atoms:
               1
     1  C   -1.646172
     2  C    0.283803
     3  C    1.611381
     4  C   -1.138834
     6  C   -0.280959
     7  C    1.141351
     8  C    1.287003
     9  C   -0.398531
    10  S    1.614151
    11  O   -0.543023
    12  O   -0.498394
    13  N   -0.084262
    16  N    0.016872
    17  C   -0.368120
    18  N   -0.100625
    20  F   -0.321322
    21  F   -0.219363
    22  F   -0.324354
    24  C    0.104922
    25  C   -0.036809
    26  C    0.276943
    28  C   -0.015030
    30  C    0.086544
    32  C   -0.049007
    34  C    0.102278
    39  O   -0.500442
 Electronic spatial extent (au):  <R**2>=          12249.3267
 Charge=              0.0000 electrons
 Dipole moment (field-independent basis, Debye):
[...]
 004168,0.00002522,0.00002899,-0.00002546,-0.00000483,-0.00000885,-0.00
 010124,0.00005329,-0.00005864,-0.00001507,0.00000131,-0.00000324,0.000
 05975,-0.00009146,0.00011514,-0.00001883,0.00005101,-0.00002255,-0.052
 38024,0.25226361,-0.00091769,-0.00031567,0.00017588,0.00039053,0.00059
 843,0.00075290,0.00007958,0.00004951,0.00002883,0.00065433,0.00033667,
 -0.00094473,0.00002126,-0.00009174,0.00002952,-0.00018940,-0.00054348,
 0.00428966,-0.00100501,0.00182326,0.00083810,0.00080911,-0.00072060,0.
 00251482,0.00040783,-0.00007827,-0.00110641,-0.00006906,-0.00009030,-0
 .00013861,0.00003907,0.00002222,0.00002068,0.00000018,0.00001340,0.000
 04208,0.00001277,-0.00000926,0.00008197,-0.00001078,0.00000441,-0.0000
 0647,0.00000719,0.00000685,-0.00001266,0.00760045,-0.01277244,0.005080
 24,-0.02555488,0.09055340,-0.10378855,0.00020108,-0.01325465,0.0065762
 8,-0.00023581,0.00008788,0.00015062,-0.00002230,-0.00002585,-0.0000100
 6,-0.00001894,-0.00000825,-0.00000590,-0.00002246,-0.00000739,0.000010
 24,0.00006756,0.00000642,-0.00007999,-0.00871353,0.02785376,-0.0176891
 8,0.00192882,0.00149289,0.00133890,-0.00050972,0.00031043,0.00019983,0
 .00036272,-0.00052383,-0.00046810,-0.00043655,-0.00050381,0.00002841,-
 0.00003093,-0.00003447,-0.00002834,0.00034153,-0.00044231,0.00010311,0
 .00005655,-0.00003301,-0.00002316,0.00031121,0.00051321,0.00018329,-0.
 00000737,-0.00000614,-0.00002002,-0.00114502,-0.00012919,-0.00008764,0
 .00019848,-0.00011320,-0.00005618,0.02577198,-0.09318677,0.10725510,0.
 00006908,0.00003976,0.00005689,-0.00003123,-0.00002408,-0.00010492,-0.
 00000636,-0.00002576,-0.00004184,-0.00010701,0.00007407,0.00010861,0.0
 0001309,-0.00000473,-0.00000738,0.00007142,-0.00048999,-0.00064599,0.0
 0021094,0.00003415,-0.00009476,0.00020397,0.00012842,0.00053266,0.0000
 1648,0.00002856,0.00001569,-0.00002194,-0.00003611,-0.00009363,0.00002
 837,0.00001691,0.00002165,-0.00000144,0.00000984,0.00002049,0.00000520
 ,-0.00000397,0.00003628,-0.00000652,0.00000124,-0.00000594,-0.00000020
 ,0.00000081,-0.00000684,0.00087276,-0.00044029,0.00052276,-0.00129952,
 0.00030009,-0.00077140,0.00094009,-0.00030829,-0.00071392,0.00003012,0
 .00007247,-0.00038963,0.00000864,0.00001380,0.00001671,-0.00000022,0.0
 0000738,0.00000601,0.00000125,-0.00000369,0.00002227,0.00013185,0.0003
 8614,0.00038600,-0.26853266,0.07304831,0.06975131,-0.02092705,0.005613
 33,0.00388902,0.00143864,0.00240381,-0.00051116,0.00010714,-0.00074795
 ,0.00078929,-0.00033022,-0.00032920,-0.00091696,-0.00001167,-0.0000250
 4,0.00004903,0.00027621,-0.00035153,0.00021183,-0.00001353,-0.00006280
 ,0.00016396,-0.00011858,0.00069181,-0.00095279,-0.00020175,-0.00019759
 ,-0.00010811,-0.00188397,-0.00349136,0.00000354,0.00005464,-0.00006289
 ,0.00039042,0.00033740,-0.00009461,0.00045891,0.29263883,-0.00004388,-
 0.00004784,-0.00012349,0.00006960,-0.00000293,0.00012011,-0.00007255,-
 0.00000576,0.00003824,0.00011810,-0.00011326,-0.00024935,-0.00001955,0
 .00001196,-0.00000207,0.00009272,0.00082390,0.00057298,-0.00011711,-0.
 00002701,0.00000071,0.00003517,-0.00022702,-0.00020164,-0.00005567,-0.
 00000561,0.00005251,0.00001440,0.00006635,0.00018484,-0.00003714,-0.00
 002789,-0.00004002,0.00002063,-0.00002239,-0.00004394,-0.00000305,0.00
 000681,-0.00006712,0.00000855,-0.00000118,0.00001217,-0.00000508,-0.00
 000234,0.00001147,-0.00001513,0.00055711,-0.00208890,0.00210587,-0.002
 19430,0.00125611,0.00027755,0.00018353,0.00019871,0.00006747,-0.000315
 82,0.00004033,0.00002485,0.00000840,-0.00000714,0.00002235,-0.00000928
 ,-0.00000742,0.00001498,0.00000918,-0.00002641,-0.00030211,-0.00039726
 ,-0.00091609,0.07379360,-0.07408517,-0.02064227,-0.02178321,0.00630759
 ,0.00656410,-0.00100811,0.00070697,-0.00075039,0.00048784,-0.00038335,
 0.00008848,0.00033299,0.00045908,0.00023402,0.00006166,0.00001712,0.00
 001206,-0.00044297,0.00013704,-0.00003935,0.00006619,0.00000298,-0.000
 05057,-0.00037205,0.00006752,-0.00083483,-0.00012497,-0.00014909,-0.00
 013626,-0.00107807,-0.00240335,-0.00028417,-0.00029174,0.00014301,0.00
 002279,-0.00044114,0.00020482,-0.00020418,-0.07719687,0.07726055,-0.00
 012096,-0.00010389,-0.00015046,0.00025274,0.00013064,0.00013437,-0.000
 15906,-0.00001959,0.00004557,0.00003929,-0.00035720,-0.00076769,-0.000
 02310,0.00000426,0.00002106,0.00195677,0.00056497,0.00067451,-0.000165
 15,0.00004176,0.00012948,0.00022336,-0.00035624,-0.00094618,-0.0000893
 2,-0.00004894,-0.00002101,0.00001655,0.00009241,0.00028331,-0.00005690
 ,-0.00004113,-0.00006552,0.00002984,-0.00003354,-0.00006543,-0.0000051
 0,0.00001724,-0.00010035,0.00001401,-0.00000554,0.00001575,-0.00000554
 ,-0.00000510,0.00001680,-0.00141496,-0.00183400,-0.00845347,0.03262672
 ,-0.01200070,-0.00892826,0.00072765,0.00157995,0.00223431,-0.00019792,
 -0.00004192,0.00004598,0.00004862,0.00001552,-0.00001483,0.00005392,-0
 .00002877,-0.00001325,0.00004035,0.00002633,-0.00006752,-0.00073267,-0
 .00084424,-0.00025146,0.06731819,-0.01909096,-0.06775070,-0.01230194,0
 .00323689,0.00279261,0.00018812,0.00037389,0.00020207,0.00019828,0.000
 15229,0.00023981,0.00009827,0.00009321,-0.00023708,0.00001482,-0.00001
 449,0.00000510,-0.00019491,0.00016094,-0.00003977,-0.00003776,-0.00002
 956,0.00007423,-0.00033212,-0.00022622,-0.00079413,-0.00011975,-0.0001
 0916,-0.00008817,-0.00123376,-0.00162772,-0.00023017,0.00003522,-0.000
 13483,0.00040632,-0.00028546,0.00070888,0.00138402,-0.07313551,0.02671
 791,0.07595779,-0.00011659,-0.00006670,-0.00007913,0.00006853,0.000085
 43,0.00014543,-0.00003536,0.00000009,0.00004045,0.00015637,-0.00003475
 ,-0.00025000,-0.00000885,-0.00001227,0.00000721,-0.00000165,0.00025533
 ,0.00083954,-0.00017689,0.00006014,0.00003791,0.00002303,-0.00018304,-
 0.00040938,0.00000135,-0.00002478,-0.00004152,0.00000846,0.00005071,0.
 00012764,-0.00002855,-0.00002332,-0.00002806,0.00001500,-0.00001807,-0
 .00002966,-0.00000179,0.00000175,-0.00004408,0.00000456,-0.00000001,0.
 00000947,-0.00000281,-0.00000120,0.00000800,0.00059291,-0.00092980,-0.
 00048465,-0.00095713,0.00010279,0.00049165,0.00009907,-0.00005550,0.00
 018998,-0.00004704,-0.00031363,0.00012776,0.00001243,0.00000138,-0.000
 00902,0.00001398,-0.00000702,-0.00000920,0.00000769,0.00000668,-0.0000
 2013,-0.00041822,0.00054813,-0.00042768,-0.06144377,0.04749624,-0.0203
 5249,0.00395410,-0.02076376,0.00978918,-0.00327955,-0.00185566,-0.0015
 5796,0.00003147,-0.00024382,0.00022009,0.00086606,-0.00084907,-0.00014
 461,-0.00021612,-0.00020370,-0.00008080,-0.00014822,0.00010170,-0.0000
 0368,0.00000243,0.00005310,-0.00003990,0.00005558,-0.00005174,0.000194
 42,0.00002084,0.00004437,0.00001374,0.00126180,-0.00139807,0.00030430,
 -0.00056417,0.00035499,-0.00036011,0.00068253,-0.00049823,-0.00008909,
 -0.00399438,0.02587570,-0.01325560,0.06354807,0.00008224,0.00001390,-0
 .00004403,-0.00002742,-0.00004407,-0.00005505,-0.00003919,-0.00002760,
 0.00001287,-0.00004725,0.00001053,0.00004633,-0.00000287,0.00000069,-0
 .00000076,-0.00007530,0.00011903,-0.00004992,0.00004076,-0.00017327,-0
 .00014126,0.00007947,0.00025992,-0.00017137,-0.00003524,0.00000078,0.0
 0011648,0.00000400,0.00001601,0.00006402,-0.00000720,-0.00000502,-0.00
 001302,0.00000719,-0.00000509,-0.00001676,-0.00000098,0.00000916,-0.00
 002820,0.00000259,-0.00000271,0.00000336,-0.00000258,-0.00000261,0.000
 00350,-0.00079494,0.00059532,-0.00038109,-0.00033232,0.00142672,-0.001
 45648,0.00038001,0.00123775,-0.00073629,0.00005253,-0.00016846,0.00012
 323,0.00001728,0.00001451,0.00000240,0.00000949,0.00000338,-0.00000210
 ,0.00000852,0.00000568,-0.00000860,-0.00004290,0.00003129,0.00039451,0
 .04521629,-0.26650663,0.09922178,0.00423212,-0.01909077,0.00741418,-0.
 00385480,-0.00145776,-0.00097232,-0.00004308,0.00026878,0.00011850,0.0
 0093156,-0.00064834,0.00004958,-0.00021898,-0.00021345,-0.00012450,-0.
 00019749,0.00033884,-0.00004943,-0.00008669,0.00005974,0.00004697,-0.0
 0017155,-0.00021077,-0.00043468,-0.00001616,0.00000776,0.00001981,0.00
 252098,0.00113934,0.00053002,-0.00093627,0.00061296,0.00002165,-0.0001
 9534,0.00066742,-0.00071126,0.00101901,-0.00657039,0.00287512,-0.04751
 747,0.28829038,0.00003906,0.00003298,0.00008465,-0.00005097,-0.0000050
 8,-0.00010229,0.00003313,0.00003262,-0.00002938,-0.00015670,0.00006880
 ,0.00020471,-0.00000129,0.00000047,0.00000168,-0.00001409,-0.00061752,
 -0.00037129,0.00005032,0.00018221,0.00011943,0.00007112,-0.00065786,-0
 .00068863,-0.00002017,-0.00003000,0.00001526,0.00000280,0.00000522,-0.
 00011727,0.00000712,0.00000007,0.00002610,-0.00001282,0.00000297,0.000
 02816,-0.00000027,-0.00002353,0.00004446,-0.00000525,0.00000589,-0.000
 00354,0.00000229,0.00000402,-0.00000376,-0.00071801,-0.00037156,0.0035
 1344,-0.00820072,0.03352655,-0.02025700,0.00116574,0.00002682,0.003740
 62,0.00007757,0.00030682,-0.00029629,-0.00001673,-0.00001506,0.0000014
 6,-0.00000590,-0.00000763,0.00000608,-0.00000508,-0.00001232,0.0000178
 6,-0.00052920,0.00023812,-0.00031752,-0.01869699,0.09732363,-0.0898633
 7,0.00227668,-0.01111230,0.00428902,-0.00211211,-0.00121738,0.00002383
 ,-0.00006758,0.00011865,-0.00002417,-0.00011212,-0.00063558,-0.0001134
 2,-0.00007739,-0.00013164,-0.00015642,0.00014765,-0.00017654,0.0001232
 5,-0.00001676,0.00000750,-0.00000876,0.00012560,0.00012091,0.00002072,
 0.00001296,0.00001722,-0.00003394,0.00012132,-0.00074280,-0.00000457,-
 0.00000720,0.00025058,0.00014972,0.00033028,-0.00160552,-0.00600121,0.
 00108914,-0.00948772,0.00408385,0.02505326,-0.10574797,0.10171032,-0.0
 0197336,0.00026143,0.00100704,-0.00072492,0.00012324,0.00142332,0.0029
 7853,0.00002635,-0.00199249,-0.00130517,-0.00058196,-0.00172500,-0.000
 68867,0.00002976,0.00040405,-0.00218144,0.00246102,0.01085648,-0.05426
 275,-0.03063014,-0.00347783,-0.50046351,-0.25156193,-0.16384922,0.0010
 9364,-0.00281184,-0.00751024,-0.00175275,-0.00198813,-0.00426071,0.001
 59663,0.00100888,0.00116592,-0.00014419,0.00077616,0.00120142,0.000383
 89,-0.00011655,0.00156093,-0.00031535,0.00000626,-0.00023718,0.0000250
 3,0.00005049,-0.00035320,0.00002980,-0.00119091,-0.00332780,0.00599778
 ,0.00126903,0.00286360,0.00016887,-0.02194319,-0.04638323,0.00031803,-
 0.00034479,0.00060859,-0.00079557,-0.00019313,0.00030903,-0.00110432,0
 .00053866,0.00046907,-0.00057567,-0.00022415,0.00119083,-0.00149777,-0
 .00218190,-0.00343482,-0.00061865,-0.00063375,0.00018783,0.00041677,0.
 00037105,-0.00034531,-0.00028835,-0.00001653,-0.00020502,-0.00002095,0
 .00008909,0.00006736,0.00003253,0.00004540,-0.00001047,-0.00003342,-0.
 00007024,0.00000843,-0.00006557,-0.00006029,-0.00003250,-0.00003516,-0
 .00003046,0.00000284,0.00006645,0.00000201,0.00002100,-0.00006228,-0.0
 0001499,0.00001467,0.00001045,-0.00030705,-0.00019803,0.00004751,-0.00
 003177,0.00013642,-0.00184437,-0.00143019,-0.00073610,0.00004196,-0.00
 009244,-0.00004073,0.00000659,0.00004153,0.00021452,0.55895987,-0.0007
 9560,-0.00005527,0.00186585,0.00031205,0.00019537,0.00028864,0.0006149
 7,-0.00013319,-0.00056243,-0.00017148,-0.00135625,0.00030346,-0.000123
 69,-0.00006709,0.00013801,-0.00107155,0.00216420,-0.00033610,-0.024394
 12,0.00949841,-0.00122917,-0.25298653,-0.23112649,-0.11145880,0.001186
 67,-0.00164961,-0.00467615,-0.00135947,-0.00149399,-0.00143062,0.00102
 021,0.00071157,0.00021117,0.00005917,0.00041043,0.00041249,0.00023575,
 0.00024813,0.00047359,-0.00007918,-0.00005294,-0.00008417,-0.00001358,
 0.00001749,-0.00014306,-0.00165453,-0.00077827,0.00067289,0.00423021,0
 .00849010,-0.00339141,-0.03145061,-0.00917838,-0.04648956,-0.00024129,
 -0.00025059,0.00058159,-0.00009254,0.00010422,0.00017740,-0.00031990,0
 .00024189,0.00013698,-0.00012367,-0.00002592,0.00033449,0.00055217,-0.
 00479578,0.00411287,-0.00177483,-0.00161718,-0.00019968,0.00069653,0.0
 0035645,-0.00052676,-0.00027815,-0.00014693,-0.00012423,-0.00001551,0.
 00009892,0.00002156,-0.00000887,0.00003056,0.00002578,-0.00002799,-0.0
 0006317,0.00000081,-0.00008408,-0.00007899,-0.00003808,-0.00003105,-0.
 00002616,-0.00001377,-0.00001232,0.00001108,0.00003296,-0.00006883,-0.
 00002232,-0.00001848,-0.00011186,-0.00034587,-0.00003591,0.00005737,0.
 00001145,0.00003798,-0.00085012,-0.00085989,0.00013553,0.00000449,0.00
 001584,0.00016550,0.00000886,-0.00000340,0.00031869,0.30935289,0.23161
 254,-0.00011205,0.00120420,0.00259271,0.00100088,0.00007604,-0.0007248
 7,-0.00098164,-0.00014661,0.00026577,-0.00003109,0.00102712,0.00184493
 ,0.00037557,0.00003541,-0.00010851,0.00293053,-0.00267878,-0.00997088,
 0.00860009,0.00516875,0.02179201,-0.17171717,-0.11543482,-0.17436358,0
 .00106937,-0.00073158,-0.00415286,-0.00170234,-0.00049524,0.00026437,0
 .00089883,0.00007828,-0.00034882,0.00053152,-0.00007727,-0.00006072,0.
 00023150,0.00023029,-0.00015207,-0.00007688,-0.00005682,0.00011400,-0.
 00006690,-0.00000339,0.00002742,-0.00263011,-0.00005873,0.00539438,0.0
 1309661,0.00376139,-0.00413279,-0.05923134,-0.04990230,-0.04097988,-0.
 00073081,0.00010333,0.00041386,0.00047073,0.00026175,0.00009602,0.0003
 4301,-0.00012246,-0.00006954,0.00019044,0.00003467,-0.00006408,-0.0012
 4323,0.00190236,0.00434974,-0.00235912,-0.00215173,0.00005775,0.000710
 08,0.00063879,-0.00084662,-0.00039107,-0.00022150,-0.00013861,-0.00001
 147,0.00013556,0.00002483,0.00006503,0.00007640,0.00005575,-0.00002656
 ,-0.00008390,-0.00001975,-0.00019011,-0.00005100,-0.00007028,-0.000034
 78,-0.00003008,-0.00003023,-0.00011395,-0.00009275,0.00006020,-0.00008
 444,-0.00003058,-0.00003788,-0.00010519,-0.00042852,0.00003365,0.00008
 845,0.00003782,-0.00003111,-0.00267811,-0.00225297,-0.00061759,-0.0000
 5142,0.00008884,0.00027386,0.00012916,0.00008081,0.00020569,0.21352377
 ,0.15909537,0.19728521,-0.01542337,-0.00987554,-0.00898069,-0.00255294
 ,-0.00124707,0.00348263,0.00012508,-0.00050076,-0.00091753,0.00028702,
 0.00058308,0.00060152,-0.00006054,0.00007910,-0.00008437,0.00061909,-0
 .00126864,0.00225396,0.00826939,0.00081944,0.00021798,0.00005471,0.001
 74473,0.00093667,-0.24530588,-0.10153179,-0.09871742,-0.00413456,-0.00
 101556,-0.00063375,0.00182124,-0.00035334,-0.00250140,0.00071569,-0.00
 010425,0.00022863,0.00019419,0.00048600,-0.00060244,0.00004962,-0.0000
 6966,0.00015059,-0.00009831,0.00002805,0.00001903,0.00041818,0.0002284
 0,0.00031663,0.00041122,0.00005435,-0.00012954,-0.00039974,-0.00051097
 ,-0.00103861,-0.00002856,0.00009862,0.00012271,-0.00045438,-0.00016306
 ,-0.00000599,-0.00010265,0.00016592,0.00009697,0.00004442,0.00001280,0
 .00017626,0.00006241,-0.00006171,0.00006526,-0.00006556,-0.00004540,-0
 .00000642,0.00001251,0.00001323,-0.00001427,-0.00000518,-0.00001385,0.
 00000411,0.00000004,0.00000335,-0.00000228,0.00000209,0.00000141,0.000
 00235,0.00000038,-0.00000046,-0.00000161,-0.00000775,-0.00000053,-0.00
 000133,0.00000011,0.00000023,-0.00000194,-0.00001102,-0.00000464,0.000
 00189,-0.00000132,-0.00000119,-0.00000410,-0.00000792,-0.00000583,0.00
 001508,0.00000257,0.00000449,-0.00000988,-0.00008589,-0.00004514,-0.00
 000649,-0.00000983,0.00001263,0.00002552,0.00000823,0.00000044,0.00000
 678,-0.00142015,-0.00019000,0.00031423,0.25707737,-0.00167539,0.004295
 98,-0.00029166,-0.00071997,0.00464650,-0.00193497,-0.00015427,0.000480
 17,-0.00009518,0.00036506,-0.00072839,0.00019035,0.00004781,-0.0003141
 0,0.00011013,-0.00093747,0.00516162,-0.00312002,-0.00744372,0.00115904
 ,-0.00546522,0.00008460,-0.00381236,0.00090106,-0.10387439,-0.09815610
 ,-0.05642378,0.00198004,-0.00105377,0.00106523,-0.00041460,-0.00185280
 ,-0.00178304,0.00041489,-0.00038620,-0.00069669,-0.00038165,-0.0005421
 1,0.00077838,-0.00013713,0.00001823,0.00020829,0.00007987,-0.00008986,
 0.00010925,-0.00033693,-0.00013904,0.00028011,0.00005138,0.00007593,-0
 .00005655,-0.00009421,0.00008928,0.00004398,0.00010040,-0.00015304,-0.
 00000345,0.00032450,-0.00002045,0.00004890,0.00005802,-0.00004464,0.00
 003944,0.00003306,-0.00002293,-0.00000544,-0.00004855,0.00020229,-0.00
 008945,-0.00000373,-0.00001175,-0.00000583,-0.00000295,-0.00001305,-0.
 00000110,-0.00000163,0.00000685,0.00000219,0.00000426,-0.00000267,-0.0
 0000454,-0.00000201,-0.00000387,0.00000258,-0.00000017,-0.00000031,-0.
 00000197,0.00000102,-0.00000177,0.00000207,0.00000135,0.00000055,-0.00
 000081,0.00000042,0.00000179,0.00000147,0.00000203,0.00000024,-0.00000
 045,0.00000145,0.00000533,0.00000049,-0.00000029,0.00000035,-0.0000027
 7,-0.00000391,-0.00002182,-0.00000217,0.00000235,0.00000149,-0.0000039
 8,0.00000424,0.00000045,0.00000726,0.00000307,-0.00009096,0.00101386,0
 .11267315,0.09131589,0.01142947,0.00580862,0.01145293,0.00401142,-0.00
 180824,-0.00128448,0.00001880,0.00034217,0.00146564,0.00047157,0.00024
 356,-0.00087352,-0.00009004,0.00012464,-0.00002807,0.00224620,-0.00344
 308,-0.00347621,-0.02230054,-0.01204047,-0.00761394,-0.00297719,-0.000
 25298,-0.00223479,-0.09941694,-0.05648517,-0.10822700,0.00513101,0.003
 42358,-0.00015047,-0.00177419,-0.00148225,-0.00273281,-0.00116195,-0.0
 0019725,0.00020496,-0.00054301,-0.00063682,-0.00062211,0.00008350,0.00
 018097,-0.00002374,0.00006652,-0.00006635,0.00021843,-0.00115023,-0.00
 060844,-0.00031191,-0.00080937,-0.00017715,0.00002195,0.00032922,0.000
 51421,0.00155553,0.00004720,0.00004039,-0.00042370,0.00042206,0.000233
 93,-0.00010577,0.00016684,-0.00021934,-0.00023336,-0.00002287,0.000016
 06,-0.00038727,0.00007165,-0.00002325,-0.00000050,0.00010701,0.0000435
 5,0.00000445,-0.00003722,-0.00003745,0.00000680,0.00002034,0.00002963,
 0.00000672,0.00000181,-0.00001018,-0.00000178,-0.00000897,-0.00000741,
 -0.00000298,0.00000116,0.00000458,0.00000043,0.00001292,-0.00000298,0.
 00000611,0.00000275,0.00000151,0.00000144,0.00001158,0.00001429,-0.000
 00098,0.00000420,0.00000097,0.00000150,0.00001365,0.00000939,-0.000015
 24,-0.00000629,-0.00000383,0.00000481,0.00012654,0.00008486,0.00000032
 ,0.00000973,-0.00001305,-0.00003537,-0.00001241,-0.00000006,-0.0000174
 9,0.00088278,0.00121482,0.00176851,0.10462127,0.06518401,0.11208295\\0
 .00000774,0.00000150,-0.00000908,0.00000204,0.00000351,0.00000274,0.00
 000143,-0.00002583,0.00000561,0.00000093,0.00000026,-0.00000668,0.0000
 0199,0.00000284,-0.00000115,0.00000259,0.00000389,0.00002254,-0.000004
 60,-0.00000413,-0.00000608,0.00002137,0.00000212,0.00001100,-0.0000055
 8,0.00000202,0.00000631,0.00000584,0.00000166,0.00002021,0.00000113,-0
 .00000720,-0.00000701,-0.00000224,-0.00000429,-0.00000909,-0.00000674,
 -0.00000393,-0.00000046,-0.00000390,-0.00000269,0.00000174,-0.00000080
 ,-0.00000241,0.00000212,0.00000298,0.00000259,-0.00002372,-0.00000272,
 -0.00000458,-0.00000320,0.00000494,-0.00000155,-0.00000139,0.00000104,
 -0.00000323,-0.00000047,0.00000353,0.00001175,0.00001569,-0.00000810,0
 .00001511,-0.00000127,-0.00001129,0.00000519,-0.00002064,0.00000226,-0
 .00000576,0.00000495,0.00000282,0.00000226,0.00001102,-0.00000409,-0.0
 0000216,-0.00000078,-0.00000217,0.00000244,0.00000141,-0.00000166,-0.0
 0000172,-0.00000004,-0.00000270,0.00000167,-0.00000129,-0.00000303,0.0
 0000150,-0.00000251,-0.00000054,0.00000369,-0.00000237,-0.00000186,0.0
 0000428,-0.00000258,0.00000040,0.00000420,-0.00000298,0.00000115,0.000
 00490,-0.00000171,0.00000300,0.00000264,0.00000028,0.00000236,0.000002
 09,-0.00000096,-0.00000106,-0.00000308,0.00000048,0.00000175,0.0000004
 0,-0.00000125,0.00000223,-0.00000011,0.00000158,-0.00001228,-0.0000056
 8,-0.00000411,0.00000183,-0.00000417,0.00000313\\\@
 The archive entry for this job was punched.


 SATCHEL PAIGE'S GUIDE TO LONGEVITY

    1.  AVOID FRIED MEATS, WHICH ANGRY UP THE BLOOD.

    2.  IF YOUR STOMACH DISPUTES YOU, LIE DOWN AND PACIFY IT WITH COOL
        THOUGHTS.

    3.  KEEP THE JUICES FLOWING BY JANGLING AROUND GENTLY AS YOU MOVE.

    4.  GO VERY LIGHT ON THE VICES, SUCH AS CARRYING ON IN SOCIETY.
        THE SOCIAL RUMBLE AIN'T RESTFUL.

    5.  AVOID RUNNING AT ALL TIMES.

    6.  DON'T LOOK BACK.  SOMETHING MAY BE GAINING ON YOU.
 Job cpu time:       0 days  9 hours 16 minutes 41.2 seconds.
 Elapsed time:       0 days  0 hours 34 minutes 56.4 seconds.
 File lengths (MBytes):  RWF=   1190 Int=      0 D2E=      0 Chk=     24 Scr=      1
 Normal termination of Gaussian 16 at Fri Jul  1 14:55:28 2022.
