 Entering Gaussian System, Link 0=g16
 AtFile(1): /home/561/yj5695/Basis/6-31pGd.gbs
 Initial command:
 /apps/gaussian/g16c01/g16/l1.exe "/jobfs/50064223.gadi-pbs/Gau-3614412.inp" -scrdir="/jobfs/50064223.gadi-pbs/"
 Entering Link 1 = /apps/gaussian/g16c01/g16/l1.exe PID=   3614417.
  
 Copyright (c) 1988-2019, Gaussian, Inc.  All Rights Reserved.
  
 This is part of the Gaussian(R) 16 program.  It is based on
 the Gaussian(R) 09 system (copyright 2009, Gaussian, Inc.),
 the Gaussian(R) 03 system (copyright 2003, Gaussian, Inc.),
 the Gaussian(R) 98 system (copyright 1998, Gaussian, Inc.),
 the Gaussian(R) 94 system (copyright 1995, Gaussian, Inc.),
 the Gaussian 92(TM) system (copyright 1992, Gaussian, Inc.),
 the Gaussian 90(TM) system (copyright 1990, Gaussian, Inc.),
 the Gaussian 88(TM) system (copyright 1988, Gaussian, Inc.),
 the Gaussian 86(TM) system (copyright 1986, Carnegie Mellon
 University), and the Gaussian 82(TM) system (copyright 1983,
 Carnegie Mellon University). Gaussian is a federally registered
 trademark of Gaussian, Inc.
  
 This software contains proprietary and confidential information,
 including trade secrets, belonging to Gaussian, Inc.
  
 This software is provided under written license and may be
 used, copied, transmitted, or stored only in accord with that
 written license.
  
 The following legend is applicable only to US Government
 contracts under FAR:
  
                    RESTRICTED RIGHTS LEGEND
  
 Use, reproduction and disclosure by the US Government is
 subject to restrictions as set forth in subparagraphs (a)
 and (c) of the Commercial Computer Software - Restricted
 Rights clause in FAR 52.227-19.
  
 Gaussian, Inc.
 340 Quinnipiac St., Bldg. 40, Wallingford CT 06492
  
  
 ---------------------------------------------------------------
 Warning -- This program may not be used in any manner that
 competes with the business of Gaussian, Inc. or will provide
 assistance to any competitor of Gaussian, Inc.  The licensee
 of this program is prohibited from giving any competitor of
 Gaussian, Inc. access to this program.  By using this program,
 the user acknowledges that Gaussian, Inc. is engaged in the
 business of creating and licensing software in the field of
 computational chemistry and represents and warrants to the
 licensee that it is not a competitor of Gaussian, Inc. and that
 it will not use this program in any manner prohibited above.
 ---------------------------------------------------------------
  

 Cite this work as:
 Gaussian 16, Revision C.01,
 M. J. Frisch, G. W. Trucks, H. B. Schlegel, G. E. Scuseria, 
 M. A. Robb, J. R. Cheeseman, G. Scalmani, V. Barone, 
 G. A. Petersson, H. Nakatsuji, X. Li, M. Caricato, A. V. Marenich, 
 J. Bloino, B. G. Janesko, R. Gomperts, B. Mennucci, H. P. Hratchian, 
 J. V. Ortiz, A. F. Izmaylov, J. L. Sonnenberg, D. Williams-Young, 
 F. Ding, F. Lipparini, F. Egidi, J. Goings, B. Peng, A. Petrone, 
 T. Henderson, D. Ranasinghe, V. G. Zakrzewski, J. Gao, N. Rega, 
 G. Zheng, W. Liang, M. Hada, M. Ehara, K. Toyota, R. Fukuda, 
 J. Hasegawa, M. Ishida, T. Nakajima, Y. Honda, O. Kitao, H. Nakai, 
 T. Vreven, K. Throssell, J. A. Montgomery, Jr., J. E. Peralta, 
 F. Ogliaro, M. J. Bearpark, J. J. Heyd, E. N. Brothers, K. N. Kudin, 
 V. N. Staroverov, T. A. Keith, R. Kobayashi, J. Normand, 
 K. Raghavachari, A. P. Rendell, J. C. Burant, S. S. Iyengar, 
 J. Tomasi, M. Cossi, J. M. Millam, M. Klene, C. Adamo, R. Cammi, 
 J. W. Ochterski, R. L. Martin, K. Morokuma, O. Farkas, 
 J. B. Foresman, and D. J. Fox, Gaussian, Inc., Wallingford CT, 2019.
 
 ******************************************
 Gaussian 16:  ES64L-G16RevC.01  3-Jul-2019
                 2-Jul-2022 
 ******************************************
 %nproc=16
 Will use up to   16 processors via shared memory.
 %mem=50gb
 --------------------------------------------------
 #M062X/gen 6D INT(grid=ultrafine) OPT Freq=noraman
 --------------------------------------------------
 1/18=20,19=15,26=4,38=1/1,3;
 2/9=110,12=2,17=6,18=5,40=1/2;
 3/5=7,8=2,11=2,25=1,30=1,71=1,74=-55,75=-5/1,2,3;
 4//1;
 5/5=2,38=5/2;
 6/7=2,8=2,9=2,10=2,28=1/1;
 7//1,2,3,16;
 1/18=20,19=15,26=4/3(2);
 2/9=110/2;
 99//99;
 2/9=110/2;
 3/5=7,6=1,8=2,11=2,25=1,30=1,71=1,74=-55,75=-5,82=7/1,2,3;
 4/5=5,16=3,69=1/1;
 5/5=2,38=5/2;
 7//1,2,3,16;
 1/18=20,19=15,26=4/3(-5);
 2/9=110/2;
 6/7=2,8=2,9=2,10=2,19=2,28=1/1;
 99/9=1/99;
 ----------
 HA.36.freq
 ----------
 Symbolic Z-matrix:
 Charge =  0 Multiplicity = 1
 C                    -1.99018   1.4107   -1.3453 
 C                    -2.56917   0.17344  -1.04482 
 Cl                   -4.03313   0.0417   -0.11277 
 C                    -1.97699  -0.99472  -1.50642 
 H                    -2.42617  -1.95463  -1.27357 
 C                    -0.81086  -0.92849  -2.26515 
 C                    -0.23543   0.30146  -2.57945 
 C                    -0.82925   1.47266  -2.11016 
 S                    -2.67288   2.96202  -0.76565 
 O                    -2.8501    2.87651   0.68132 
 O                    -1.83172   4.01854  -1.32099 
 N                    -4.16728   3.17763  -1.41512 
 H                    -4.86304   2.52341  -1.05494 
 H                    -4.15381   3.18897  -2.43697 
 H                    -0.39321   2.44224  -2.33015 
 C                     1.07596   0.36074  -3.36144 
 N                     1.18381   1.58264  -4.14946 
 C                     2.2716    0.50037  -2.43108 
 C                     2.16694   2.42917  -3.73343 
 C                     2.90066   1.71791  -2.65405 
 O                     2.38528   3.55547  -4.17699 
 C                     2.74352  -0.39058  -1.47971 
 C                     3.87603  -0.01354  -0.75156 
 C                     4.50666   1.21776  -0.97217 
 C                     4.0234    2.10591  -1.93414 
 O                     1.26398  -0.79893  -4.1377 
 H                    -0.35574  -1.84995  -2.61339 
 H                     0.42546   1.90344  -4.74482 
 H                     2.25251  -1.34368  -1.302 
 H                     4.27319  -0.68628   0.00262 
 H                     5.38184   1.48127  -0.38642 
 H                     4.50462   3.06225  -2.11746 
 H                     0.48651  -0.93254  -4.70899 
 

 GradGradGradGradGradGradGradGradGradGradGradGradGradGradGradGradGradGrad
 Berny optimization.
 Initialization pass.
                           ----------------------------
                           !    Initial Parameters    !
                           ! (Angstroms and Degrees)  !
 --------------------------                            --------------------------
 ! Name  Definition              Value          Derivative Info.                !
 --------------------------------------------------------------------------------
 ! R1    R(1,2)                  1.3987         estimate D2E/DX2                !
 ! R2    R(1,8)                  1.3916         estimate D2E/DX2                !
 ! R3    R(1,9)                  1.7913         estimate D2E/DX2                !
 ! R4    R(2,3)                  1.7405         estimate D2E/DX2                !
 ! R5    R(2,4)                  1.3887         estimate D2E/DX2                !
 ! R6    R(4,5)                  1.0851         estimate D2E/DX2                !
 ! R7    R(4,6)                  1.3928         estimate D2E/DX2                !
 ! R8    R(6,7)                  1.3938         estimate D2E/DX2                !
 ! R9    R(6,27)                 1.0851         estimate D2E/DX2                !
 ! R10   R(7,8)                  1.3945         estimate D2E/DX2                !
 ! R11   R(7,16)                 1.528          estimate D2E/DX2                !
 ! R12   R(8,15)                 1.0856         estimate D2E/DX2                !
 ! R13   R(9,10)                 1.4603         estimate D2E/DX2                !
 ! R14   R(9,11)                 1.4602         estimate D2E/DX2                !
 ! R15   R(9,12)                 1.6436         estimate D2E/DX2                !
 ! R16   R(12,13)                1.0207         estimate D2E/DX2                !
 ! R17   R(12,14)                1.022          estimate D2E/DX2                !
 ! R18   R(16,17)                1.458          estimate D2E/DX2                !
 ! R19   R(16,18)                1.5214         estimate D2E/DX2                !
 ! R20   R(16,26)                1.4081         estimate D2E/DX2                !
 ! R21   R(17,19)                1.3624         estimate D2E/DX2                !
 ! R22   R(17,28)                1.0161         estimate D2E/DX2                !
 ! R23   R(18,20)                1.3885         estimate D2E/DX2                !
 ! R24   R(18,22)                1.3862         estimate D2E/DX2                !
 ! R25   R(19,20)                1.4864         estimate D2E/DX2                !
 ! R26   R(19,21)                1.23           estimate D2E/DX2                !
 ! R27   R(20,25)                1.389          estimate D2E/DX2                !
 ! R28   R(22,23)                1.3982         estimate D2E/DX2                !
 ! R29   R(22,29)                1.0868         estimate D2E/DX2                !
 ! R30   R(23,24)                1.4009         estimate D2E/DX2                !
 ! R31   R(23,30)                1.0859         estimate D2E/DX2                !
 ! R32   R(24,25)                1.3956         estimate D2E/DX2                !
 ! R33   R(24,31)                1.0856         estimate D2E/DX2                !
 ! R34   R(25,32)                1.0862         estimate D2E/DX2                !
 ! R35   R(26,33)                0.974          estimate D2E/DX2                !
 ! A1    A(2,1,8)              120.1848         estimate D2E/DX2                !
 ! A2    A(2,1,9)              122.6022         estimate D2E/DX2                !
 ! A3    A(8,1,9)              117.2092         estimate D2E/DX2                !
 ! A4    A(1,2,3)              122.0182         estimate D2E/DX2                !
 ! A5    A(1,2,4)              119.7483         estimate D2E/DX2                !
 ! A6    A(3,2,4)              118.2311         estimate D2E/DX2                !
 ! A7    A(2,4,5)              119.7562         estimate D2E/DX2                !
 ! A8    A(2,4,6)              119.8757         estimate D2E/DX2                !
 ! A9    A(5,4,6)              120.3681         estimate D2E/DX2                !
 ! A10   A(4,6,7)              120.6945         estimate D2E/DX2                !
 ! A11   A(4,6,27)             119.0523         estimate D2E/DX2                !
 ! A12   A(7,6,27)             120.2528         estimate D2E/DX2                !
 ! A13   A(6,7,8)              119.3046         estimate D2E/DX2                !
 ! A14   A(6,7,16)             120.2626         estimate D2E/DX2                !
 ! A15   A(8,7,16)             120.3395         estimate D2E/DX2                !
 ! A16   A(1,8,7)              120.1867         estimate D2E/DX2                !
 ! A17   A(1,8,15)             119.0911         estimate D2E/DX2                !
 ! A18   A(7,8,15)             120.7216         estimate D2E/DX2                !
 ! A19   A(1,9,10)             108.4322         estimate D2E/DX2                !
 ! A20   A(1,9,11)             106.4991         estimate D2E/DX2                !
 ! A21   A(1,9,12)             109.4062         estimate D2E/DX2                !
 ! A22   A(10,9,11)            119.2829         estimate D2E/DX2                !
 ! A23   A(10,9,12)            106.791          estimate D2E/DX2                !
 ! A24   A(11,9,12)            106.1747         estimate D2E/DX2                !
 ! A25   A(9,12,13)            113.344          estimate D2E/DX2                !
 ! A26   A(9,12,14)            112.616          estimate D2E/DX2                !
 ! A27   A(13,12,14)           111.6494         estimate D2E/DX2                !
 ! A28   A(7,16,17)            111.8769         estimate D2E/DX2                !
 ! A29   A(7,16,18)            111.4127         estimate D2E/DX2                !
 ! A30   A(7,16,26)            111.3945         estimate D2E/DX2                !
 ! A31   A(17,16,18)           101.2722         estimate D2E/DX2                !
 ! A32   A(17,16,26)           112.481          estimate D2E/DX2                !
 ! A33   A(18,16,26)           107.9243         estimate D2E/DX2                !
 ! A34   A(16,17,19)           114.1463         estimate D2E/DX2                !
 ! A35   A(16,17,28)           121.7409         estimate D2E/DX2                !
 ! A36   A(19,17,28)           121.4198         estimate D2E/DX2                !
 ! A37   A(16,18,20)           109.7752         estimate D2E/DX2                !
 ! A38   A(16,18,22)           128.9209         estimate D2E/DX2                !
 ! A39   A(20,18,22)           121.3036         estimate D2E/DX2                !
 ! A40   A(17,19,20)           106.2977         estimate D2E/DX2                !
 ! A41   A(17,19,21)           125.9382         estimate D2E/DX2                !
 ! A42   A(20,19,21)           127.7641         estimate D2E/DX2                !
 ! A43   A(18,20,19)           108.2151         estimate D2E/DX2                !
 ! A44   A(18,20,25)           121.8654         estimate D2E/DX2                !
 ! A45   A(19,20,25)           129.9194         estimate D2E/DX2                !
 ! A46   A(18,22,23)           117.3769         estimate D2E/DX2                !
 ! A47   A(18,22,29)           121.4718         estimate D2E/DX2                !
 ! A48   A(23,22,29)           121.151          estimate D2E/DX2                !
 ! A49   A(22,23,24)           121.3079         estimate D2E/DX2                !
 ! A50   A(22,23,30)           119.399          estimate D2E/DX2                !
 ! A51   A(24,23,30)           119.2927         estimate D2E/DX2                !
 ! A52   A(23,24,25)           120.7984         estimate D2E/DX2                !
 ! A53   A(23,24,31)           119.426          estimate D2E/DX2                !
 ! A54   A(25,24,31)           119.7756         estimate D2E/DX2                !
 ! A55   A(20,25,24)           117.3465         estimate D2E/DX2                !
 ! A56   A(20,25,32)           121.1035         estimate D2E/DX2                !
 ! A57   A(24,25,32)           121.5498         estimate D2E/DX2                !
 ! A58   A(16,26,33)           109.2523         estimate D2E/DX2                !
 ! D1    D(8,1,2,3)           -179.0675         estimate D2E/DX2                !
 ! D2    D(8,1,2,4)              0.3592         estimate D2E/DX2                !
 ! D3    D(9,1,2,3)              1.6684         estimate D2E/DX2                !
 ! D4    D(9,1,2,4)           -178.9049         estimate D2E/DX2                !
 ! D5    D(2,1,8,7)             -0.1062         estimate D2E/DX2                !
 ! D6    D(2,1,8,15)          -179.811          estimate D2E/DX2                !
 ! D7    D(9,1,8,7)            179.1968         estimate D2E/DX2                !
 ! D8    D(9,1,8,15)            -0.508          estimate D2E/DX2                !
 ! D9    D(2,1,9,10)            52.6144         estimate D2E/DX2                !
 ! D10   D(2,1,9,11)          -177.8596         estimate D2E/DX2                !
 ! D11   D(2,1,9,12)           -63.5056         estimate D2E/DX2                !
 ! D12   D(8,1,9,10)          -126.6704         estimate D2E/DX2                !
 ! D13   D(8,1,9,11)             2.8557         estimate D2E/DX2                !
 ! D14   D(8,1,9,12)           117.2097         estimate D2E/DX2                !
 ! D15   D(1,2,4,5)           -179.9868         estimate D2E/DX2                !
 ! D16   D(1,2,4,6)              0.0094         estimate D2E/DX2                !
 ! D17   D(3,2,4,5)             -0.5386         estimate D2E/DX2                !
 ! D18   D(3,2,4,6)            179.4577         estimate D2E/DX2                !
 ! D19   D(2,4,6,7)             -0.6361         estimate D2E/DX2                !
 ! D20   D(2,4,6,27)           179.5952         estimate D2E/DX2                !
 ! D21   D(5,4,6,7)            179.3602         estimate D2E/DX2                !
 ! D22   D(5,4,6,27)            -0.4085         estimate D2E/DX2                !
 ! D23   D(4,6,7,8)              0.8845         estimate D2E/DX2                !
 ! D24   D(4,6,7,16)           177.3847         estimate D2E/DX2                !
 ! D25   D(27,6,7,8)          -179.3495         estimate D2E/DX2                !
 ! D26   D(27,6,7,16)           -2.8494         estimate D2E/DX2                !
 ! D27   D(6,7,8,1)             -0.5106         estimate D2E/DX2                !
 ! D28   D(6,7,8,15)           179.1893         estimate D2E/DX2                !
 ! D29   D(16,7,8,1)          -177.008          estimate D2E/DX2                !
 ! D30   D(16,7,8,15)            2.6919         estimate D2E/DX2                !
 ! D31   D(6,7,16,17)          151.4712         estimate D2E/DX2                !
 ! D32   D(6,7,16,18)          -95.9647         estimate D2E/DX2                !
 ! D33   D(6,7,16,26)           24.6114         estimate D2E/DX2                !
 ! D34   D(8,7,16,17)          -32.0652         estimate D2E/DX2                !
 ! D35   D(8,7,16,18)           80.4989         estimate D2E/DX2                !
 ! D36   D(8,7,16,26)         -158.9249         estimate D2E/DX2                !
 ! D37   D(1,9,12,13)           68.8279         estimate D2E/DX2                !
 ! D38   D(1,9,12,14)          -59.1299         estimate D2E/DX2                !
 ! D39   D(10,9,12,13)         -48.3307         estimate D2E/DX2                !
 ! D40   D(10,9,12,14)        -176.2885         estimate D2E/DX2                !
 ! D41   D(11,9,12,13)        -176.6091         estimate D2E/DX2                !
 ! D42   D(11,9,12,14)          55.4332         estimate D2E/DX2                !
 ! D43   D(7,16,17,19)         113.2826         estimate D2E/DX2                !
 ! D44   D(7,16,17,28)         -48.3535         estimate D2E/DX2                !
 ! D45   D(18,16,17,19)         -5.4802         estimate D2E/DX2                !
 ! D46   D(18,16,17,28)       -167.1162         estimate D2E/DX2                !
 ! D47   D(26,16,17,19)       -120.4476         estimate D2E/DX2                !
 ! D48   D(26,16,17,28)         77.9163         estimate D2E/DX2                !
 ! D49   D(7,16,18,20)        -115.816          estimate D2E/DX2                !
 ! D50   D(7,16,18,22)          64.3656         estimate D2E/DX2                !
 ! D51   D(17,16,18,20)          3.28           estimate D2E/DX2                !
 ! D52   D(17,16,18,22)       -176.5384         estimate D2E/DX2                !
 ! D53   D(26,16,18,20)        121.5911         estimate D2E/DX2                !
 ! D54   D(26,16,18,22)        -58.2274         estimate D2E/DX2                !
 ! D55   D(7,16,26,33)          54.4967         estimate D2E/DX2                !
 ! D56   D(17,16,26,33)        -72.0326         estimate D2E/DX2                !
 ! D57   D(18,16,26,33)        177.1008         estimate D2E/DX2                !
 ! D58   D(16,17,19,20)          5.4873         estimate D2E/DX2                !
 ! D59   D(16,17,19,21)       -174.4646         estimate D2E/DX2                !
 ! D60   D(28,17,19,20)        167.1887         estimate D2E/DX2                !
 ! D61   D(28,17,19,21)        -12.7632         estimate D2E/DX2                !
 ! D62   D(16,18,20,19)         -0.3404         estimate D2E/DX2                !
 ! D63   D(16,18,20,25)        179.791          estimate D2E/DX2                !
 ! D64   D(22,18,20,19)        179.4942         estimate D2E/DX2                !
 ! D65   D(22,18,20,25)         -0.3743         estimate D2E/DX2                !
 ! D66   D(16,18,22,23)        179.9386         estimate D2E/DX2                !
 ! D67   D(16,18,22,29)         -0.2844         estimate D2E/DX2                !
 ! D68   D(20,18,22,23)          0.1386         estimate D2E/DX2                !
 ! D69   D(20,18,22,29)        179.9156         estimate D2E/DX2                !
 ! D70   D(17,19,20,18)         -3.0175         estimate D2E/DX2                !
 ! D71   D(17,19,20,25)        176.8369         estimate D2E/DX2                !
 ! D72   D(21,19,20,18)        176.9332         estimate D2E/DX2                !
 ! D73   D(21,19,20,25)         -3.2123         estimate D2E/DX2                !
 ! D74   D(18,20,25,24)          0.2746         estimate D2E/DX2                !
 ! D75   D(18,20,25,32)       -179.8798         estimate D2E/DX2                !
 ! D76   D(19,20,25,24)       -179.5626         estimate D2E/DX2                !
 ! D77   D(19,20,25,32)          0.283          estimate D2E/DX2                !
 ! D78   D(18,22,23,24)          0.177          estimate D2E/DX2                !
 ! D79   D(18,22,23,30)        179.9513         estimate D2E/DX2                !
 ! D80   D(29,22,23,24)       -179.6007         estimate D2E/DX2                !
 ! D81   D(29,22,23,30)          0.1735         estimate D2E/DX2                !
 ! D82   D(22,23,24,25)         -0.2711         estimate D2E/DX2                !
 ! D83   D(22,23,24,31)        179.75           estimate D2E/DX2                !
 ! D84   D(30,23,24,25)        179.9545         estimate D2E/DX2                !
 ! D85   D(30,23,24,31)         -0.0245         estimate D2E/DX2                !
 ! D86   D(23,24,25,20)          0.0425         estimate D2E/DX2                !
 ! D87   D(23,24,25,32)       -179.8024         estimate D2E/DX2                !
 ! D88   D(31,24,25,20)       -179.9787         estimate D2E/DX2                !
 ! D89   D(31,24,25,32)          0.1765         estimate D2E/DX2                !
 --------------------------------------------------------------------------------
 Trust Radius=3.00D-01 FncErr=1.00D-07 GrdErr=1.00D-06 EigMax=2.50D+02 EigMin=1.00D-04
 Number of steps in this run=    192 maximum allowed number of steps=    198.
 GradGradGradGradGradGradGradGradGradGradGradGradGradGradGradGradGradGrad

                          Input orientation:                          
 ---------------------------------------------------------------------
 Center     Atomic      Atomic             Coordinates (Angstroms)
 Number     Number       Type             X           Y           Z
 ---------------------------------------------------------------------
      1          6           0       -1.990182    1.410696   -1.345300
      2          6           0       -2.569170    0.173445   -1.044822
      3         17           0       -4.033130    0.041703   -0.112773
      4          6           0       -1.976988   -0.994717   -1.506424
      5          1           0       -2.426172   -1.954628   -1.273572
      6          6           0       -0.810862   -0.928490   -2.265146
      7          6           0       -0.235427    0.301461   -2.579446
      8          6           0       -0.829249    1.472655   -2.110158
      9         16           0       -2.672883    2.962018   -0.765655
     10          8           0       -2.850098    2.876509    0.681323
     11          8           0       -1.831716    4.018541   -1.320993
     12          7           0       -4.167283    3.177628   -1.415120
     13          1           0       -4.863041    2.523415   -1.054942
     14          1           0       -4.153811    3.188972   -2.436975
     15          1           0       -0.393208    2.442241   -2.330153
     16          6           0        1.075955    0.360737   -3.361438
     17          7           0        1.183806    1.582640   -4.149462
     18          6           0        2.271604    0.500366   -2.431082
     19          6           0        2.166935    2.429169   -3.733433
     20          6           0        2.900656    1.717910   -2.654048
     21          8           0        2.385276    3.555474   -4.176995
     22          6           0        2.743522   -0.390582   -1.479709
     23          6           0        3.876029   -0.013539   -0.751563
     24          6           0        4.506658    1.217762   -0.972171
     25          6           0        4.023399    2.105911   -1.934136
     26          8           0        1.263984   -0.798931   -4.137702
     27          1           0       -0.355739   -1.849946   -2.613394
     28          1           0        0.425457    1.903435   -4.744823
     29          1           0        2.252512   -1.343676   -1.301999
     30          1           0        4.273191   -0.686281    0.002621
     31          1           0        5.381844    1.481270   -0.386419
     32          1           0        4.504625    3.062245   -2.117459
     33          1           0        0.486513   -0.932537   -4.708993
 ---------------------------------------------------------------------
                    Distance matrix (angstroms):
                    1          2          3          4          5
     1  C    0.000000
     2  C    1.398680   0.000000
     3  Cl   2.750800   1.740474   0.000000
     4  C    2.410840   1.388654   2.691497   0.000000
     5  H    3.394206   2.145103   2.813380   1.085087   0.000000
     6  C    2.776455   2.407301   3.994621   1.392801   2.155320
     7  C    2.415095   2.796036   4.535912   2.421670   3.405086
     8  C    1.391622   2.418722   4.037577   2.787423   3.872507
     9  S    1.791276   2.804430   3.287060   4.085188   4.948964
    10  O    2.644856   3.219480   3.172740   4.531551   5.228882
    11  O    2.612768   3.924904   4.703324   5.018789   6.002863
    12  N    2.804762   3.422894   3.398254   4.713194   5.421397
    13  H    3.094474   3.283946   2.781245   4.572788   5.102841
    14  H    3.005879   3.680024   3.914304   4.807051   5.549312
    15  H    2.141109   3.396222   4.891666   3.872928   4.958000
    16  C    3.816861   4.323047   6.062868   3.820837   4.688816
    17  N    4.238760   5.070449   6.773903   4.859942   5.815062
    18  C    4.491152   5.045958   6.733097   4.597912   5.425488
    19  C    4.901233   5.894711   7.566372   5.818476   6.809201
    20  C    5.072228   5.907112   7.572657   5.697964   6.615765
    21  O    5.635885   6.767212   8.370210   6.845840   7.870268
    22  C    5.066619   5.360220   6.926645   4.759087   5.405041
    23  C    6.065757   6.454577   7.935106   5.982502   6.614988
    24  C    6.510406   7.152847   8.663121   6.871547   7.630140
    25  C    6.082204   6.927285   8.513870   6.767679   7.649921
    26  O    4.823853   5.020408   6.705680   4.179217   4.812081
    27  H    3.861510   3.384348   4.832665   2.141319   2.468355
    28  H    4.199388   5.064648   6.693350   4.965708   5.921657
    29  H    5.058547   5.061266   6.545444   4.248792   4.718491
    30  H    6.741220   6.975254   8.338959   6.437164   6.936774
    31  H    7.434461   8.084710   9.528325   7.844573   8.576570
    32  H    6.745841   7.715847   9.275543   7.670959   8.597506
    33  H    4.789488   4.897607   6.519322   4.040935   4.618498
                    6          7          8          9         10
     6  C    0.000000
     7  C    1.393804   0.000000
     8  C    2.406212   1.394471   0.000000
     9  S    4.566360   4.038514   2.724863   0.000000
    10  O    5.226679   4.909174   3.721156   1.460295   0.000000
    11  O    5.138743   4.236569   2.847675   1.460207   2.520042
    12  N    5.371062   5.008740   3.812149   1.643632   2.494139
    13  H    5.458973   5.354997   4.299890   2.252299   2.681648
    14  H    5.306442   4.869471   3.755698   2.244542   3.394273
    15  H    3.397130   2.161014   1.085646   2.813316   3.910740
    16  C    2.534570   1.527989   2.536112   5.249623   6.171460
    17  N    3.719559   2.473983   2.867620   5.312898   6.425182
    18  C    3.401582   2.519282   3.265521   5.768998   6.447088
    19  C    4.721971   3.410303   3.539358   5.702235   6.697821
    20  C    4.574936   3.441934   3.777321   6.014829   6.748201
    21  O    5.828928   4.473125   4.352369   6.129796   7.174495
    22  C    3.679661   3.249998   4.078457   6.409934   6.828801
    23  C    5.009493   4.510483   5.118027   7.193218   7.459646
    24  C    5.878283   5.090218   5.461858   7.391272   7.720579
    25  C    5.717275   4.670125   4.896957   6.851165   7.394552
    26  O    2.797899   2.426367   3.694951   6.404246   7.325130
    27  H    1.085125   2.155036   3.393691   5.651398   6.278246
    28  H    3.961954   2.773435   2.949799   5.153066   6.412425
    29  H    3.237946   3.244717   4.252304   6.564007   6.912319
    30  H    5.572165   5.288700   5.929564   7.883418   7.993456
    31  H    6.905517   6.144514   6.445853   8.198480   8.417341
    32  H    6.648472   5.504858   5.565704   7.304385   7.871444
    33  H    2.766874   2.564941   3.777582   6.379598   7.395763
                   11         12         13         14         15
    11  O    0.000000
    12  N    2.484124   0.000000
    13  H    3.390445   1.020687   0.000000
    14  H    2.706608   1.022006   1.689967   0.000000
    15  H    2.360599   3.952433   4.648888   3.835513   0.000000
    16  C    5.098774   6.262154   6.728208   6.016976   2.748572
    17  N    4.798669   6.217296   6.857512   5.831215   2.556515
    18  C    5.517888   7.046927   7.542523   6.965242   3.298831
    19  C    4.933070   6.786537   7.523547   6.496918   2.919537
    20  C    5.428193   7.322669   7.967494   7.209483   3.388082
    21  O    5.114117   7.120867   7.959300   6.776552   3.517113
    22  C    6.355970   7.777887   8.156691   7.829609   4.311290
    23  C    7.011438   8.678636   9.104918   8.807669   5.171962
    24  C    6.938373   8.903625   9.460594   9.001947   5.229928
    25  C    6.190029   8.276788   8.939581   8.263936   4.447062
    26  O    6.381633   7.261138   7.621143   6.938901   4.064322
    27  H    6.187725   6.421856   6.470768   6.312462   4.301686
    28  H    4.614229   5.814099   6.478256   5.286631   2.605984
    29  H    6.740522   7.852946   8.102254   7.929316   4.731818
    30  H    7.820306   9.390494   9.741217   9.590807   6.083154
    31  H    7.703675   9.753035  10.319431   9.902007   6.168695
    32  H    6.457404   8.701068   9.443116   8.665256   4.941499
    33  H    6.431633   7.028576   7.342576   6.609199   4.221601
                   16         17         18         19         20
    16  C    0.000000
    17  N    1.457964   0.000000
    18  C    1.521392   2.303791   0.000000
    19  C    2.367916   1.362437   2.329668   0.000000
    20  C    2.381565   2.280819   1.388464   1.486374   0.000000
    21  O    3.547646   2.310057   3.520628   1.230034   2.441644
    22  C    2.624150   3.667956   1.386219   3.655505   2.418574
    23  C    3.846030   4.619694   2.378878   4.216559   2.751130
    24  C    4.267647   4.611904   2.763792   3.816592   2.378676
    25  C    3.710828   3.639336   2.427657   2.605460   1.389018
    26  O    1.408109   2.382949   2.369815   3.376297   3.348793
    27  H    2.737963   4.063539   3.529891   5.092072   4.830668
    28  H    2.171823   1.016099   3.275707   2.081358   3.245361
    29  H    2.920719   4.220604   2.162332   4.489270   3.409022
    30  H    4.757673   5.650849   3.367104   5.300985   3.836909
    31  H    5.352290   5.638643   3.849209   4.736735   3.369634
    32  H    4.538877   4.164866   3.412912   2.911521   2.160528
    33  H    1.958547   2.669346   3.229341   3.882860   4.132282
                   21         22         23         24         25
    21  O    0.000000
    22  C    4.793230   0.000000
    23  C    5.166603   1.398189   0.000000
    24  C    4.498450   2.439880   1.400879   0.000000
    25  C    3.132905   2.842018   2.431515   1.395609   0.000000
    26  O    4.496630   3.069317   4.348053   4.960098   4.572547
    27  H    6.259119   3.608380   4.974603   5.978909   5.940290
    28  H    2.625367   4.614857   5.614923   5.599933   4.570135
    29  H    5.681980   1.086765   2.169805   3.427962   3.928777
    30  H    6.247071   2.150494   1.085870   2.151769   3.407310
    31  H    5.258347   3.414653   2.152966   1.085584   2.151971
    32  H    2.996098   3.928133   3.423631   2.171130   1.086168
    33  H    4.902098   3.976944   5.290996   5.894845   5.426008
                   26         27         28         29         30
    26  O    0.000000
    27  H    2.460010   0.000000
    28  H    2.893874   4.386471   0.000000
    29  H    3.052073   2.962945   5.072957   0.000000
    30  H    5.119599   5.442852   6.637010   2.493460   0.000000
    31  H    6.018988   6.998305   6.613598   4.314084   2.465510
    32  H    5.430637   6.928110   4.988536   5.014891   4.312743
    33  H    0.974005   2.437737   2.836856   3.859456   6.049701
                   31         32         33
    31  H    0.000000
    32  H    2.503097   0.000000
    33  H    6.962426   6.230535   0.000000
 Stoichiometry    C14H11ClN2O4S
 Framework group  C1[X(C14H11ClN2O4S)]
 Deg. of freedom    93
 Full point group                 C1      NOp   1
 Largest Abelian subgroup         C1      NOp   1
 Largest concise Abelian subgroup C1      NOp   1
                         Standard orientation:                         
 ---------------------------------------------------------------------
 Center     Atomic      Atomic             Coordinates (Angstroms)
 Number     Number       Type             X           Y           Z
 ---------------------------------------------------------------------
      1          6           0       -1.802731   -0.015146   -0.050250
      2          6           0       -2.339553   -1.305880   -0.004076
      3         17           0       -3.994490   -1.601415    0.446582
      4          6           0       -1.544664   -2.395020   -0.336166
      5          1           0       -1.961057   -3.396402   -0.300596
      6          6           0       -0.218499   -2.196852   -0.712874
      7          6           0        0.319539   -0.912521   -0.773693
      8          6           0       -0.479388    0.178932   -0.434581
      9         16           0       -2.749781    1.440328    0.389479
     10          8           0       -3.330504    1.230885    1.712867
     11          8           0       -1.874233    2.587580    0.167143
     12          7           0       -4.004725    1.612319   -0.657926
     13          1           0       -4.718379    0.889719   -0.556195
     14          1           0       -3.697062    1.704453   -1.628159
     15          1           0       -0.080050    1.188113   -0.461209
     16          6           0        1.791535   -0.710370   -1.130224
     17          7           0        2.021448    0.573823   -1.781105
     18          6           0        2.650918   -0.569570    0.117282
     19          6           0        2.768591    1.444957   -1.046844
     20          6           0        3.214678    0.698616    0.158680
     21          8           0        3.012076    2.613969   -1.341987
     22          6           0        2.899249   -1.501034    1.113431
     23          6           0        3.737318   -1.112126    2.162870
     24          6           0        4.300762    0.169661    2.207760
     25          6           0        4.044913    1.098460    1.198008
     26          8           0        2.291383   -1.791678   -1.881020
     27          1           0        0.392485   -3.057967   -0.963225
     28          1           0        1.444064    0.892230   -2.554216
     29          1           0        2.458366   -2.493929    1.084466
     30          1           0        3.953392   -1.815715    2.961236
     31          1           0        4.944042    0.440672    3.039166
     32          1           0        4.477823    2.094408    1.218921
     33          1           0        1.726362   -1.928467   -2.662509
 ---------------------------------------------------------------------
 Rotational constants (GHZ):           0.4160088           0.1557013           0.1400380
 General basis read from cards:  (6D, 7F)
 There are   448 symmetry adapted cartesian basis functions of A   symmetry.
 There are   448 symmetry adapted basis functions of A   symmetry.
   448 basis functions,   796 primitive gaussians,   448 cartesian basis functions
    87 alpha electrons       87 beta electrons
       nuclear repulsion energy      2114.6623242252 Hartrees.
 NAtoms=   33 NActive=   33 NUniq=   33 SFac= 1.00D+00 NAtFMM=   60 NAOKFM=F Big=F
 Integral buffers will be    131072 words long.
 Raffenetti 2 integral format.
 Two-electron integral symmetry is turned on.
 One-electron integrals computed using PRISM.
 NBasis=   448 RedAO= T EigKep=  1.24D-06  NBF=   448
 NBsUse=   445 1.00D-06 EigRej=  7.04D-07 NBFU=   445
 ExpMin= 4.05D-02 ExpMax= 2.52D+04 ExpMxC= 3.78D+03 IAcc=3 IRadAn=         5 AccDes= 0.00D+00
 Harris functional with IExCor= 1009 and IRadAn=       5 diagonalized for initial guess.
 HarFok:  IExCor= 1009 AccDes= 0.00D+00 IRadAn=         5 IDoV= 1 UseB2=F ITyADJ=14
 ICtDFT=  3500011 ScaDFX=  1.000000  1.000000  1.000000  1.000000
 FoFCou: FMM=F IPFlag=           0 FMFlag=      100000 FMFlg1=           0
         NFxFlg=           0 DoJE=T BraDBF=F KetDBF=T FulRan=T
         wScrn=  0.000000 ICntrl=       500 IOpCl=  0 I1Cent=   200000004 NGrid=           0
         NMat0=    1 NMatS0=      1 NMatT0=    0 NMatD0=    1 NMtDS0=    0 NMtDT0=    0
 Petite list used in FoFCou.
 Requested convergence on RMS density matrix=1.00D-08 within 128 cycles.
 Requested convergence on MAX density matrix=1.00D-06.
 Requested convergence on             energy=1.00D-06.
 No special actions if energy rises.
 SCF Done:  E(RM062X) =  -1808.43372376     A.U. after   17 cycles
            NFock= 17  Conv=0.55D-08     -V/T= 2.0059

 **********************************************************************

            Population analysis using the SCF Density.

 **********************************************************************

 Orbital symmetries:
       Occupied  (A) (A) (A) (A) (A) (A) (A) (A) (A) (A) (A) (A)
                 (A) (A) (A) (A) (A) (A) (A) (A) (A) (A) (A) (A)
                 (A) (A) (A) (A) (A) (A) (A) (A) (A) (A) (A) (A)
                 (A) (A) (A) (A) (A) (A) (A) (A) (A) (A) (A) (A)
                 (A) (A) (A) (A) (A) (A) (A) (A) (A) (A) (A) (A)
                 (A) (A) (A) (A) (A) (A) (A) (A) (A) (A) (A) (A)
                 (A) (A) (A) (A) (A) (A) (A) (A) (A) (A) (A) (A)
                 (A) (A) (A)
       Virtual   (A) (A) (A) (A) (A) (A) (A) (A) (A) (A) (A) (A)
                 (A) (A) (A) (A) (A) (A) (A) (A) (A) (A) (A) (A)
                 (A) (A) (A) (A) (A) (A) (A) (A) (A) (A) (A) (A)
                 (A) (A) (A) (A) (A) (A) (A) (A) (A) (A) (A) (A)
                 (A) (A) (A) (A) (A) (A) (A) (A) (A) (A) (A) (A)
                 (A) (A) (A) (A) (A) (A) (A) (A) (A) (A) (A) (A)
                 (A) (A) (A) (A) (A) (A) (A) (A) (A) (A) (A) (A)
                 (A) (A) (A) (A) (A) (A) (A) (A) (A) (A) (A) (A)
                 (A) (A) (A) (A) (A) (A) (A) (A) (A) (A) (A) (A)
                 (A) (A) (A) (A) (A) (A) (A) (A) (A) (A) (A) (A)
                 (A) (A) (A) (A) (A) (A) (A) (A) (A) (A) (A) (A)
                 (A) (A) (A) (A) (A) (A) (A) (A) (A) (A) (A) (A)
                 (A) (A) (A) (A) (A) (A) (A) (A) (A) (A) (A) (A)
                 (A) (A) (A) (A) (A) (A) (A) (A) (A) (A) (A) (A)
                 (A) (A) (A) (A) (A) (A) (A) (A) (A) (A) (A) (A)
                 (A) (A) (A) (A) (A) (A) (A) (A) (A) (A) (A) (A)
                 (A) (A) (A) (A) (A) (A) (A) (A) (A) (A) (A) (A)
                 (A) (A) (A) (A) (A) (A) (A) (A) (A) (A) (A) (A)
                 (A) (A) (A) (A) (A) (A) (A) (A) (A) (A) (A) (A)
                 (A) (A) (A) (A) (A) (A) (A) (A) (A) (A) (A) (A)
                 (A) (A) (A) (A) (A) (A) (A) (A) (A) (A) (A) (A)
                 (A) (A) (A) (A) (A) (A) (A) (A) (A) (A) (A) (A)
                 (A) (A) (A) (A) (A) (A) (A) (A) (A) (A) (A) (A)
                 (A) (A) (A) (A) (A) (A) (A) (A) (A) (A) (A) (A)
                 (A) (A) (A) (A) (A) (A) (A) (A) (A) (A) (A) (A)
                 (A) (A) (A) (A) (A) (A) (A) (A) (A) (A) (A) (A)
                 (A) (A) (A) (A) (A) (A) (A) (A) (A) (A) (A) (A)
                 (A) (A) (A) (A) (A) (A) (A) (A) (A) (A) (A) (A)
                 (A) (A) (A) (A) (A) (A) (A) (A) (A) (A) (A) (A)
                 (A) (A) (A) (A) (A) (A) (A) (A) (A) (A)
 The electronic state is 1-A.
 Alpha  occ. eigenvalues -- -102.70794 -90.18153 -19.68788 -19.65170 -19.64953
 Alpha  occ. eigenvalues --  -19.62787 -14.81985 -14.80705 -10.68902 -10.67188
 Alpha  occ. eigenvalues --  -10.66521 -10.62840 -10.60959 -10.60724 -10.60699
 Alpha  occ. eigenvalues --  -10.60551 -10.58814 -10.58184 -10.58072 -10.57960
 Alpha  occ. eigenvalues --  -10.57819 -10.57685  -9.85429  -8.49058  -7.57840
 Alpha  occ. eigenvalues --   -7.57172  -7.57131  -6.41278  -6.41207  -6.41163
 Alpha  occ. eigenvalues --   -1.25406  -1.20527  -1.16683  -1.13471  -1.07086
 Alpha  occ. eigenvalues --   -1.04845  -1.03889  -0.98569  -0.98249  -0.91109
 Alpha  occ. eigenvalues --   -0.89610  -0.88233  -0.87017  -0.80310  -0.78636
 Alpha  occ. eigenvalues --   -0.75415  -0.73592  -0.71795  -0.69558  -0.68058
 Alpha  occ. eigenvalues --   -0.66305  -0.63823  -0.63355  -0.61461  -0.59771
 Alpha  occ. eigenvalues --   -0.58975  -0.58245  -0.58102  -0.57522  -0.55121
 Alpha  occ. eigenvalues --   -0.53503  -0.53036  -0.52835  -0.52320  -0.51260
 Alpha  occ. eigenvalues --   -0.50881  -0.50214  -0.49032  -0.47127  -0.46395
 Alpha  occ. eigenvalues --   -0.45578  -0.44318  -0.43732  -0.43279  -0.42042
 Alpha  occ. eigenvalues --   -0.41735  -0.41338  -0.40912  -0.40426  -0.38793
 Alpha  occ. eigenvalues --   -0.38171  -0.35556  -0.34942  -0.34457  -0.33806
 Alpha  occ. eigenvalues --   -0.32838  -0.32012
 Alpha virt. eigenvalues --   -0.04491  -0.03679  -0.02029  -0.01544  -0.00015
 Alpha virt. eigenvalues --    0.00060   0.00622   0.01700   0.01917   0.03004
 Alpha virt. eigenvalues --    0.03432   0.03881   0.04152   0.04591   0.05309
 Alpha virt. eigenvalues --    0.05618   0.06159   0.06680   0.06974   0.07250
 Alpha virt. eigenvalues --    0.07398   0.08079   0.08564   0.08713   0.09071
 Alpha virt. eigenvalues --    0.09684   0.09919   0.10074   0.10286   0.10872
 Alpha virt. eigenvalues --    0.11252   0.11787   0.12076   0.12282   0.12839
 Alpha virt. eigenvalues --    0.13179   0.13579   0.13812   0.14184   0.14436
 Alpha virt. eigenvalues --    0.14816   0.15545   0.15581   0.15823   0.16626
 Alpha virt. eigenvalues --    0.16947   0.17243   0.17627   0.17781   0.18073
 Alpha virt. eigenvalues --    0.18375   0.18642   0.19055   0.19291   0.19622
 Alpha virt. eigenvalues --    0.19964   0.20052   0.20643   0.20847   0.20985
 Alpha virt. eigenvalues --    0.21323   0.21557   0.22234   0.22345   0.23034
 Alpha virt. eigenvalues --    0.23155   0.23575   0.23920   0.24143   0.24693
 Alpha virt. eigenvalues --    0.24915   0.25043   0.25470   0.25741   0.25931
 Alpha virt. eigenvalues --    0.26163   0.27386   0.27758   0.27854   0.28231
 Alpha virt. eigenvalues --    0.28424   0.29099   0.29495   0.29560   0.29867
 Alpha virt. eigenvalues --    0.30260   0.30446   0.31062   0.31570   0.31763
 Alpha virt. eigenvalues --    0.32295   0.32860   0.33481   0.33849   0.34209
 Alpha virt. eigenvalues --    0.34485   0.34620   0.34958   0.35631   0.36185
 Alpha virt. eigenvalues --    0.36618   0.36753   0.37560   0.38120   0.38369
 Alpha virt. eigenvalues --    0.38984   0.39491   0.40418   0.41247   0.41364
 Alpha virt. eigenvalues --    0.41931   0.42607   0.43248   0.44341   0.45020
 Alpha virt. eigenvalues --    0.45873   0.46164   0.47448   0.47833   0.49075
 Alpha virt. eigenvalues --    0.50528   0.52120   0.54463   0.55591   0.57937
 Alpha virt. eigenvalues --    0.58671   0.60303   0.61807   0.64539   0.65148
 Alpha virt. eigenvalues --    0.65726   0.66112   0.68264   0.69344   0.69904
 Alpha virt. eigenvalues --    0.70272   0.71293   0.72541   0.73253   0.74150
 Alpha virt. eigenvalues --    0.74553   0.75670   0.76135   0.76632   0.77185
 Alpha virt. eigenvalues --    0.77976   0.78502   0.79129   0.79552   0.80334
 Alpha virt. eigenvalues --    0.81942   0.82367   0.83690   0.84268   0.84991
 Alpha virt. eigenvalues --    0.86199   0.86746   0.87742   0.88019   0.89100
 Alpha virt. eigenvalues --    0.91151   0.91701   0.92466   0.92787   0.94022
 Alpha virt. eigenvalues --    0.94675   0.95376   0.95725   0.96922   0.98571
 Alpha virt. eigenvalues --    0.99167   0.99601   1.01109   1.01731   1.02491
 Alpha virt. eigenvalues --    1.03581   1.04083   1.05151   1.06184   1.06310
 Alpha virt. eigenvalues --    1.07137   1.07835   1.09165   1.10107   1.11941
 Alpha virt. eigenvalues --    1.12362   1.13600   1.14168   1.14490   1.15513
 Alpha virt. eigenvalues --    1.15729   1.16720   1.17052   1.17702   1.18324
 Alpha virt. eigenvalues --    1.19931   1.20921   1.21648   1.22133   1.22606
 Alpha virt. eigenvalues --    1.23928   1.25329   1.26945   1.27650   1.28526
 Alpha virt. eigenvalues --    1.30573   1.31280   1.33485   1.34005   1.35057
 Alpha virt. eigenvalues --    1.36172   1.36353   1.38128   1.39565   1.40341
 Alpha virt. eigenvalues --    1.40856   1.41399   1.41891   1.42152   1.44230
 Alpha virt. eigenvalues --    1.44638   1.44735   1.45542   1.46163   1.47308
 Alpha virt. eigenvalues --    1.47700   1.48284   1.48459   1.50274   1.50392
 Alpha virt. eigenvalues --    1.51646   1.52330   1.53231   1.53745   1.54585
 Alpha virt. eigenvalues --    1.55638   1.56722   1.58838   1.59042   1.62679
 Alpha virt. eigenvalues --    1.63571   1.69564   1.69965   1.71168   1.75811
 Alpha virt. eigenvalues --    1.77191   1.78533   1.79686   1.80227   1.81570
 Alpha virt. eigenvalues --    1.82320   1.84080   1.84752   1.85653   1.86950
 Alpha virt. eigenvalues --    1.87370   1.88154   1.89195   1.89407   1.90991
 Alpha virt. eigenvalues --    1.91735   1.93009   1.95845   1.96407   1.97032
 Alpha virt. eigenvalues --    1.99366   2.00199   2.01070   2.01984   2.02511
 Alpha virt. eigenvalues --    2.04379   2.04897   2.05465   2.08528   2.09597
 Alpha virt. eigenvalues --    2.12297   2.13537   2.14798   2.15095   2.15623
 Alpha virt. eigenvalues --    2.17369   2.17973   2.19355   2.19879   2.20703
 Alpha virt. eigenvalues --    2.22019   2.22703   2.23844   2.24050   2.26903
 Alpha virt. eigenvalues --    2.28518   2.28834   2.29287   2.30967   2.32620
 Alpha virt. eigenvalues --    2.33705   2.34735   2.37029   2.39521   2.42207
 Alpha virt. eigenvalues --    2.44323   2.45843   2.48595   2.50378   2.52386
 Alpha virt. eigenvalues --    2.55551   2.59812   2.61064   2.62513   2.63465
 Alpha virt. eigenvalues --    2.64156   2.66178   2.68478   2.69105   2.73095
 Alpha virt. eigenvalues --    2.74504   2.75343   2.76586   2.77370   2.79256
 Alpha virt. eigenvalues --    2.81422   2.86183   2.87237   2.89467   2.91071
 Alpha virt. eigenvalues --    2.92517   2.97083   3.00368   3.01376   3.08284
 Alpha virt. eigenvalues --    3.11645   3.13834   3.22342   3.30846   3.33463
 Alpha virt. eigenvalues --    3.44737   3.90112   4.06299   4.20024   4.25457
 Alpha virt. eigenvalues --    4.26881   4.27983   4.29687   4.31577   4.32585
 Alpha virt. eigenvalues --    4.35538   4.38938   4.39835   4.43457   4.44698
 Alpha virt. eigenvalues --    4.47267   4.50965   4.53390   4.57182   4.68680
 Alpha virt. eigenvalues --    4.76879   4.81704   4.93185
          Condensed to atoms (all electrons):
               1          2          3          4          5          6
     1  C   44.875936 -23.976457   1.077750  -3.948424   0.075019  -5.825449
     2  C  -23.976457  50.662910  -1.167696  -8.966545   0.076394   6.999813
     3  Cl   1.077750  -1.167696  17.089120  -0.122494  -0.008383  -0.055616
     4  C   -3.948424  -8.966545  -0.122494  22.777507   0.163373  -7.711919
     5  H    0.075019   0.076394  -0.008383   0.163373   0.449476  -0.059834
     6  C   -5.825449   6.999813  -0.055616  -7.711919  -0.059834  24.726863
     7  C   -2.442039  -4.824143  -0.101525   2.534026   0.054620  -9.356750
     8  C    4.593223 -14.078132   0.123552   2.392460   0.007672  -2.986998
     9  S   -2.432772  -0.735970   0.004333   1.150173  -0.001334   0.508526
    10  O   -0.784285   0.406439  -0.116947   0.124251  -0.000050   0.098699
    11  O   -0.838930  -0.147758   0.002147   0.196389   0.000014  -0.045086
    12  N   -0.138082  -0.321697   0.006826   0.143836  -0.000288  -0.102854
    13  H   -0.079011   0.014666   0.015525   0.018330   0.000001   0.005975
    14  H   -0.128769   0.094923  -0.005167  -0.000306   0.000000   0.009389
    15  H   -0.097106  -0.013016  -0.000428   0.002894   0.000011  -0.033445
    16  C   -1.626409   1.357602  -0.014912  -2.773733   0.002627  -0.131813
    17  N    0.046051  -0.043360   0.000449   0.117000   0.000000   0.257934
    18  C   -0.002170  -0.429227   0.026070   0.405006  -0.002412   1.731234
    19  C    0.227605   0.261587  -0.004521  -0.118348  -0.000141  -0.321702
    20  C    0.179145  -0.457536   0.005417   0.191253  -0.000285  -0.091389
    21  O   -0.017249  -0.006909   0.000010   0.002439  -0.000000  -0.008097
    22  C   -0.446027  -0.314222  -0.013755   0.173712   0.001846  -1.652089
    23  C   -0.054597   0.176184  -0.001968  -0.251165   0.000386  -0.063649
    24  C   -0.015665  -0.073197   0.000198   0.053272  -0.000009  -0.087416
    25  C   -0.015904   0.245527  -0.004274  -0.124724   0.000016  -0.124901
    26  O   -0.002992   0.075792   0.000048   0.129541   0.000260  -0.004075
    27  H    0.002930   0.010794   0.001140  -0.101571  -0.003251   0.377667
    28  H   -0.008637  -0.003540  -0.000015   0.007446   0.000000   0.003603
    29  H    0.005887  -0.001809   0.000014  -0.011164  -0.000002  -0.004580
    30  H    0.000172  -0.000198   0.000001   0.000264  -0.000000  -0.000621
    31  H    0.000007  -0.000003   0.000000   0.000015   0.000000   0.000207
    32  H   -0.000395  -0.000067   0.000000   0.000004   0.000000   0.000011
    33  H   -0.006105   0.004138  -0.000143  -0.032420  -0.000000  -0.040064
               7          8          9         10         11         12
     1  C   -2.442039   4.593223  -2.432772  -0.784285  -0.838930  -0.138082
     2  C   -4.824143 -14.078132  -0.735970   0.406439  -0.147758  -0.321697
     3  Cl  -0.101525   0.123552   0.004333  -0.116947   0.002147   0.006826
     4  C    2.534026   2.392460   1.150173   0.124251   0.196389   0.143836
     5  H    0.054620   0.007672  -0.001334  -0.000050   0.000014  -0.000288
     6  C   -9.356750  -2.986998   0.508526   0.098699  -0.045086  -0.102854
     7  C   35.357476  -3.173370  -1.537578  -0.114924   0.034339   0.338535
     8  C   -3.173370  18.181649   0.709182  -0.089202   0.416444   0.172573
     9  S   -1.537578   0.709182  16.986074   0.537035   0.423328  -0.573424
    10  O   -0.114924  -0.089202   0.537035   8.653494  -0.137791  -0.147452
    11  O    0.034339   0.416444   0.423328  -0.137791   8.770601  -0.091042
    12  N    0.338535   0.172573  -0.573424  -0.147452  -0.091042   8.140525
    13  H   -0.009598   0.003482   0.057549  -0.002798   0.011799   0.225596
    14  H   -0.031470  -0.039572   0.124320   0.011736  -0.006960   0.238801
    15  H    0.062925   0.376153  -0.017422  -0.000527   0.000962   0.000554
    16  C   -9.192239  -0.786045  -0.511223  -0.016959  -0.040951   0.016686
    17  N    0.193272   0.353818   0.016182  -0.000254   0.003634   0.000833
    18  C   -3.371807   1.802441  -0.096289  -0.008066  -0.004088   0.013136
    19  C   -1.275221  -1.168916  -0.087042   0.002811   0.004371  -0.000256
    20  C   -1.599814   0.974773   0.046237  -0.002068   0.015512   0.001147
    21  O    0.012052   0.004666  -0.001800  -0.000006  -0.000239   0.000094
    22  C    2.877411  -0.743039   0.010151   0.001014  -0.001950   0.000496
    23  C    0.426919  -0.135875  -0.018075   0.000961  -0.002723   0.000395
    24  C    0.021859   0.026584   0.003532  -0.000329   0.001184   0.000050
    25  C    1.634697  -0.960036  -0.017183   0.002577  -0.005028   0.000803
    26  O    0.391782   0.070773  -0.001120  -0.000068  -0.000096   0.000047
    27  H    0.044838   0.011449   0.000088  -0.000001  -0.000004   0.000033
    28  H   -0.017834  -0.019810   0.000009   0.000001  -0.000043   0.000049
    29  H    0.040717   0.007845   0.000079  -0.000001   0.000000   0.000001
    30  H    0.002054  -0.000483   0.000002   0.000000   0.000000   0.000000
    31  H    0.000303  -0.000132   0.000001   0.000000   0.000000   0.000000
    32  H   -0.000791   0.001163   0.000009  -0.000000   0.000000   0.000000
    33  H    0.034188   0.001984  -0.000284  -0.000000  -0.000003  -0.000011
              13         14         15         16         17         18
     1  C   -0.079011  -0.128769  -0.097106  -1.626409   0.046051  -0.002170
     2  C    0.014666   0.094923  -0.013016   1.357602  -0.043360  -0.429227
     3  Cl   0.015525  -0.005167  -0.000428  -0.014912   0.000449   0.026070
     4  C    0.018330  -0.000306   0.002894  -2.773733   0.117000   0.405006
     5  H    0.000001   0.000000   0.000011   0.002627   0.000000  -0.002412
     6  C    0.005975   0.009389  -0.033445  -0.131813   0.257934   1.731234
     7  C   -0.009598  -0.031470   0.062925  -9.192239   0.193272  -3.371807
     8  C    0.003482  -0.039572   0.376153  -0.786045   0.353818   1.802441
     9  S    0.057549   0.124320  -0.017422  -0.511223   0.016182  -0.096289
    10  O   -0.002798   0.011736  -0.000527  -0.016959  -0.000254  -0.008066
    11  O    0.011799  -0.006960   0.000962  -0.040951   0.003634  -0.004088
    12  N    0.225596   0.238801   0.000554   0.016686   0.000833   0.013136
    13  H    0.310745  -0.021596  -0.000011  -0.000389  -0.000010  -0.000106
    14  H   -0.021596   0.313083  -0.000042  -0.002699   0.000032  -0.000662
    15  H   -0.000011  -0.000042   0.401459  -0.015025   0.016522   0.021186
    16  C   -0.000389  -0.002699  -0.015025  25.473177  -1.583842  -7.160374
    17  N   -0.000010   0.000032   0.016522  -1.583842   8.266961   1.608105
    18  C   -0.000106  -0.000662   0.021186  -7.160374   1.608105  32.991093
    19  C    0.000041   0.000036  -0.004686  -0.660195  -0.270575  -3.391369
    20  C   -0.000049   0.000195  -0.001282  -3.830281   0.594394  -4.400890
    21  O   -0.000000  -0.000001  -0.000517   0.100993  -0.163958  -0.039109
    22  C    0.000018  -0.000045  -0.006324   5.864309  -1.215295 -13.492093
    23  C    0.000003  -0.000010  -0.000448  -0.101579   0.003502  -0.841955
    24  C   -0.000001   0.000002  -0.000672   0.106674  -0.053920  -1.563120
    25  C   -0.000002   0.000006  -0.004210   0.284769  -0.688667   2.384739
    26  O   -0.000000  -0.000002  -0.000230  -0.620718  -0.042299   0.194344
    27  H   -0.000000  -0.000000  -0.000115  -0.038917  -0.002760  -0.038244
    28  H   -0.000000  -0.000000  -0.000651   0.072451   0.231497  -0.031995
    29  H   -0.000000  -0.000000  -0.000002  -0.052903   0.000457   0.073920
    30  H   -0.000000   0.000000   0.000000  -0.009628   0.000132   0.018395
    31  H    0.000000  -0.000000   0.000000   0.002372   0.000183   0.032720
    32  H   -0.000000   0.000000  -0.000001   0.007149   0.000550   0.064030
    33  H    0.000000   0.000000   0.000012   0.202735  -0.016835  -0.163632
              19         20         21         22         23         24
     1  C    0.227605   0.179145  -0.017249  -0.446027  -0.054597  -0.015665
     2  C    0.261587  -0.457536  -0.006909  -0.314222   0.176184  -0.073197
     3  Cl  -0.004521   0.005417   0.000010  -0.013755  -0.001968   0.000198
     4  C   -0.118348   0.191253   0.002439   0.173712  -0.251165   0.053272
     5  H   -0.000141  -0.000285  -0.000000   0.001846   0.000386  -0.000009
     6  C   -0.321702  -0.091389  -0.008097  -1.652089  -0.063649  -0.087416
     7  C   -1.275221  -1.599814   0.012052   2.877411   0.426919   0.021859
     8  C   -1.168916   0.974773   0.004666  -0.743039  -0.135875   0.026584
     9  S   -0.087042   0.046237  -0.001800   0.010151  -0.018075   0.003532
    10  O    0.002811  -0.002068  -0.000006   0.001014   0.000961  -0.000329
    11  O    0.004371   0.015512  -0.000239  -0.001950  -0.002723   0.001184
    12  N   -0.000256   0.001147   0.000094   0.000496   0.000395   0.000050
    13  H    0.000041  -0.000049  -0.000000   0.000018   0.000003  -0.000001
    14  H    0.000036   0.000195  -0.000001  -0.000045  -0.000010   0.000002
    15  H   -0.004686  -0.001282  -0.000517  -0.006324  -0.000448  -0.000672
    16  C   -0.660195  -3.830281   0.100993   5.864309  -0.101579   0.106674
    17  N   -0.270575   0.594394  -0.163958  -1.215295   0.003502  -0.053920
    18  C   -3.391369  -4.400890  -0.039109 -13.492093  -0.841955  -1.563120
    19  C   12.418765   3.507284   0.335804  -2.429991   0.193679   0.390892
    20  C    3.507284  40.158424  -0.005710  -8.664203  -1.327134   0.659822
    21  O    0.335804  -0.005710   8.277334   0.076858  -0.008542   0.014295
    22  C   -2.429991  -8.664203   0.076858  20.294842  -0.200184   0.530523
    23  C    0.193679  -1.327134  -0.008542  -0.200184   7.541594   0.095921
    24  C    0.390892   0.659822   0.014295   0.530523   0.095921   6.061418
    25  C   -1.757093 -19.545999  -0.113778   4.978687   0.465646  -0.370321
    26  O   -0.105782  -0.307720   0.000975   0.034107   0.063891  -0.012463
    27  H   -0.002608  -0.010152  -0.000001   0.024363   0.007912  -0.000336
    28  H   -0.046489   0.025573   0.007066   0.027769  -0.002206   0.001754
    29  H    0.013618   0.092114   0.000022   0.214938  -0.035229  -0.014546
    30  H    0.003701   0.055111  -0.000002   0.033291   0.246932  -0.010340
    31  H   -0.003055  -0.019040  -0.000002  -0.014605  -0.002499   0.289222
    32  H   -0.043704   0.048889   0.003967  -0.019587  -0.002623  -0.049974
    33  H   -0.012685  -0.023307  -0.000103   0.061072  -0.002874   0.000163
              25         26         27         28         29         30
     1  C   -0.015904  -0.002992   0.002930  -0.008637   0.005887   0.000172
     2  C    0.245527   0.075792   0.010794  -0.003540  -0.001809  -0.000198
     3  Cl  -0.004274   0.000048   0.001140  -0.000015   0.000014   0.000001
     4  C   -0.124724   0.129541  -0.101571   0.007446  -0.011164   0.000264
     5  H    0.000016   0.000260  -0.003251   0.000000  -0.000002  -0.000000
     6  C   -0.124901  -0.004075   0.377667   0.003603  -0.004580  -0.000621
     7  C    1.634697   0.391782   0.044838  -0.017834   0.040717   0.002054
     8  C   -0.960036   0.070773   0.011449  -0.019810   0.007845  -0.000483
     9  S   -0.017183  -0.001120   0.000088   0.000009   0.000079   0.000002
    10  O    0.002577  -0.000068  -0.000001   0.000001  -0.000001   0.000000
    11  O   -0.005028  -0.000096  -0.000004  -0.000043   0.000000   0.000000
    12  N    0.000803   0.000047   0.000033   0.000049   0.000001   0.000000
    13  H   -0.000002  -0.000000  -0.000000  -0.000000  -0.000000  -0.000000
    14  H    0.000006  -0.000002  -0.000000  -0.000000  -0.000000   0.000000
    15  H   -0.004210  -0.000230  -0.000115  -0.000651  -0.000002   0.000000
    16  C    0.284769  -0.620718  -0.038917   0.072451  -0.052903  -0.009628
    17  N   -0.688667  -0.042299  -0.002760   0.231497   0.000457   0.000132
    18  C    2.384739   0.194344  -0.038244  -0.031995   0.073920   0.018395
    19  C   -1.757093  -0.105782  -0.002608  -0.046489   0.013618   0.003701
    20  C  -19.545999  -0.307720  -0.010152   0.025573   0.092114   0.055111
    21  O   -0.113778   0.000975  -0.000001   0.007066   0.000022  -0.000002
    22  C    4.978687   0.034107   0.024363   0.027769   0.214938   0.033291
    23  C    0.465646   0.063891   0.007912  -0.002206  -0.035229   0.246932
    24  C   -0.370321  -0.012463  -0.000336   0.001754  -0.014546  -0.010340
    25  C   19.890567   0.086615   0.000883   0.007915  -0.034517  -0.028759
    26  O    0.086615   8.408198   0.011299  -0.007921   0.000094  -0.000085
    27  H    0.000883   0.011299   0.452643   0.000007  -0.000361  -0.000000
    28  H    0.007915  -0.007921   0.000007   0.293620  -0.000001  -0.000000
    29  H   -0.034517   0.000094  -0.000361  -0.000001   0.477761  -0.003350
    30  H   -0.028759  -0.000085  -0.000000  -0.000000  -0.003350   0.480226
    31  H    0.025727   0.000006   0.000000  -0.000000  -0.000113  -0.003416
    32  H    0.294058   0.000010  -0.000000  -0.000001   0.000014  -0.000113
    33  H    0.010805   0.162389  -0.001543   0.001446  -0.000017  -0.000000
              31         32         33
     1  C    0.000007  -0.000395  -0.006105
     2  C   -0.000003  -0.000067   0.004138
     3  Cl   0.000000   0.000000  -0.000143
     4  C    0.000015   0.000004  -0.032420
     5  H    0.000000   0.000000  -0.000000
     6  C    0.000207   0.000011  -0.040064
     7  C    0.000303  -0.000791   0.034188
     8  C   -0.000132   0.001163   0.001984
     9  S    0.000001   0.000009  -0.000284
    10  O    0.000000  -0.000000  -0.000000
    11  O    0.000000   0.000000  -0.000003
    12  N    0.000000   0.000000  -0.000011
    13  H    0.000000  -0.000000   0.000000
    14  H   -0.000000   0.000000   0.000000
    15  H    0.000000  -0.000001   0.000012
    16  C    0.002372   0.007149   0.202735
    17  N    0.000183   0.000550  -0.016835
    18  C    0.032720   0.064030  -0.163632
    19  C   -0.003055  -0.043704  -0.012685
    20  C   -0.019040   0.048889  -0.023307
    21  O   -0.000002   0.003967  -0.000103
    22  C   -0.014605  -0.019587   0.061072
    23  C   -0.002499  -0.002623  -0.002874
    24  C    0.289222  -0.049974   0.000163
    25  C    0.025727   0.294058   0.010805
    26  O    0.000006   0.000010   0.162389
    27  H    0.000000  -0.000000  -0.001543
    28  H   -0.000000  -0.000001   0.001446
    29  H   -0.000113   0.000014  -0.000017
    30  H   -0.003416  -0.000113  -0.000000
    31  H    0.476657  -0.002628   0.000000
    32  H   -0.002628   0.449163  -0.000000
    33  H    0.000000  -0.000000   0.320090
 Mulliken charges:
               1
     1  C   -2.196250
     2  C    1.174713
     3  Cl   0.265243
     4  C   -0.420379
     5  H    0.244275
     6  C   -0.011578
     7  C   -1.012909
     8  C   -0.050279
     9  S    1.454703
    10  O   -0.417286
    11  O   -0.558034
    12  N   -0.925912
    13  H    0.449841
    14  H    0.444777
    15  H    0.313483
    16  C    1.679289
    17  N   -0.629732
    18  C   -0.328812
    19  C    0.344187
    20  C   -0.268433
    21  O   -0.470552
    22  C    0.008002
    23  C   -0.170591
    24  C   -0.005054
    25  C   -0.518640
    26  O   -0.524599
    27  H    0.253816
    28  H    0.458937
    29  H    0.231113
    30  H    0.216715
    31  H    0.218071
    32  H    0.250865
    33  H    0.501009
 Sum of Mulliken charges =  -0.00000
 Mulliken charges with hydrogens summed into heavy atoms:
               1
     1  C   -2.196250
     2  C    1.174713
     3  Cl   0.265243
     4  C   -0.176104
     6  C    0.242239
     7  C   -1.012909
     8  C    0.263204
     9  S    1.454703
    10  O   -0.417286
    11  O   -0.558034
    12  N   -0.031293
    16  C    1.679289
    17  N   -0.170795
    18  C   -0.328812
    19  C    0.344187
    20  C   -0.268433
    21  O   -0.470552
    22  C    0.239115
    23  C    0.046124
    24  C    0.213017
    25  C   -0.267775
    26  O   -0.023590
 Electronic spatial extent (au):  <R**2>=           7836.1106
 Charge=             -0.0000 electrons
 Dipole moment (field-independent basis, Debye):
    X=             -1.1186    Y=             -7.2701    Z=             -3.1617  Tot=              8.0064
 Quadrupole moment (field-independent basis, Debye-Ang):
   XX=           -142.6668   YY=           -152.4054   ZZ=           -133.1788
   XY=              1.2198   XZ=             27.2014   YZ=             -0.1678
 Traceless Quadrupole moment (field-independent basis, Debye-Ang):
   XX=              0.0835   YY=             -9.6551   ZZ=              9.5716
   XY=              1.2198   XZ=             27.2014   YZ=             -0.1678
 Octapole moment (field-independent basis, Debye-Ang**2):
  XXX=            -82.5527  YYY=            -78.7746  ZZZ=            -36.0775  XYY=            -20.3320
  XXY=            -20.2885  XXZ=             15.4752  XZZ=             15.2002  YZZ=             -9.7865
  YYZ=              7.3706  XYZ=             30.9198
 Hexadecapole moment (field-independent basis, Debye-Ang**3):
 XXXX=          -6859.3526 YYYY=          -2150.4624 ZZZZ=          -1109.2517 XXXY=             74.7799
 XXXZ=            385.9625 YYYX=             -7.4677 YYYZ=             59.0588 ZZZX=             48.2509
 ZZZY=             -0.1279 XXYY=          -1675.3417 XXZZ=          -1325.2098 YYZZ=           -537.3049
 XXYZ=            -23.7028 YYXZ=             85.3552 ZZXY=            -48.1542
 N-N= 2.114662324225D+03 E-N=-8.479612312793D+03  KE= 1.797822353041D+03
 Calling FoFJK, ICntrl=      2127 FMM=F ISym2X=0 I1Cent= 0 IOpClX= 0 NMat=1 NMatS=1 NMatT=0.
 ***** Axes restored to original set *****
 -------------------------------------------------------------------
 Center     Atomic                   Forces (Hartrees/Bohr)
 Number     Number              X              Y              Z
 -------------------------------------------------------------------
      1        6          -0.002363496   -0.002122173   -0.002270267
      2        6          -0.001214190    0.000512608    0.001056844
      3       17           0.000794423    0.000269464   -0.001148923
      4        6           0.000918942   -0.001073103   -0.000754839
      5        1          -0.000509860    0.000410812    0.000516302
      6        6          -0.001903603   -0.000523650    0.000511512
      7        6           0.001475312   -0.000954871   -0.000907818
      8        6          -0.000617900   -0.001291152    0.000191189
      9       16           0.016531410    0.022706359    0.025747491
     10        8          -0.001823403   -0.005469416   -0.014266934
     11        8          -0.006139346   -0.011762724   -0.003597481
     12        7          -0.009153574   -0.006631460   -0.009539908
     13        1           0.002088070    0.001479493    0.000880212
     14        1           0.000022436    0.002297998    0.003482338
     15        1          -0.000677364    0.001445639    0.000907910
     16        6           0.000570842    0.001433493   -0.003466812
     17        7          -0.013305005   -0.011831480    0.000490974
     18        6           0.001649123    0.000320400    0.000652947
     19        6           0.015604300    0.036681068   -0.010208123
     20        6          -0.000523636   -0.002938077    0.001503618
     21        8          -0.004853798   -0.022629744    0.008872235
     22        6           0.000688793    0.000728499    0.000491907
     23        6          -0.000662686   -0.000009464   -0.000365566
     24        6          -0.001051243   -0.000442975   -0.000818630
     25        6           0.000110754   -0.000772058    0.000541068
     26        8          -0.003606860   -0.002101485    0.000232399
     27        1           0.001299175    0.000068107   -0.000150578
     28        1           0.004101737    0.000984326    0.001130989
     29        1           0.000422947    0.000057206   -0.000244819
     30        1           0.000010516   -0.000031020    0.000032971
     31        1          -0.000036258   -0.000055699    0.000054181
     32        1          -0.001103258   -0.000072406   -0.000774309
     33        1           0.003256700    0.001317484    0.001217920
 -------------------------------------------------------------------
 Cartesian Forces:  Max     0.036681068 RMS     0.007014057

 GradGradGradGradGradGradGradGradGradGradGradGradGradGradGradGradGradGrad
 Berny optimization.
 FormGI is forming the generalized inverse of G from B-inverse, IUseBI=4.
 Internal  Forces:  Max     0.024782597 RMS     0.002916214
 Search for a local minimum.
 Step number   1 out of a maximum of  192
 All quantities printed in internal units (Hartrees-Bohrs-Radians)
 Mixed Optimization -- RFO/linear search
 Second derivative matrix not updated -- first step.
 ITU=  0
     Eigenvalues ---    0.00396   0.00486   0.00949   0.01325   0.01445
     Eigenvalues ---    0.01505   0.01558   0.01585   0.01640   0.01706
     Eigenvalues ---    0.01913   0.02042   0.02094   0.02115   0.02118
     Eigenvalues ---    0.02145   0.02168   0.02175   0.02177   0.02183
     Eigenvalues ---    0.02191   0.02194   0.02203   0.02204   0.02214
     Eigenvalues ---    0.04306   0.06563   0.07167   0.09259   0.09738
     Eigenvalues ---    0.10397   0.12925   0.14418   0.15193   0.16000
     Eigenvalues ---    0.16000   0.16000   0.16000   0.16000   0.16000
     Eigenvalues ---    0.16000   0.16000   0.16000   0.16000   0.19935
     Eigenvalues ---    0.20310   0.22000   0.22373   0.22624   0.23475
     Eigenvalues ---    0.24422   0.24604   0.24725   0.24951   0.24998
     Eigenvalues ---    0.24999   0.25000   0.25000   0.26816   0.29326
     Eigenvalues ---    0.29610   0.31429   0.32367   0.35189   0.35259
     Eigenvalues ---    0.35294   0.35321   0.35328   0.35382   0.35387
     Eigenvalues ---    0.35652   0.40763   0.42422   0.42617   0.42736
     Eigenvalues ---    0.43629   0.44020   0.44229   0.44303   0.44966
     Eigenvalues ---    0.45284   0.45989   0.46180   0.46664   0.46943
     Eigenvalues ---    0.46979   0.47282   0.47554   0.50562   0.52567
     Eigenvalues ---    0.91072   0.91486   0.91523
 RFO step:  Lambda=-4.66392528D-03 EMin= 3.95705594D-03
 Linear search not attempted -- first point.
 Iteration  1 RMS(Cart)=  0.04493888 RMS(Int)=  0.00097559
 Iteration  2 RMS(Cart)=  0.00132788 RMS(Int)=  0.00014817
 Iteration  3 RMS(Cart)=  0.00000148 RMS(Int)=  0.00014816
 Iteration  4 RMS(Cart)=  0.00000000 RMS(Int)=  0.00014816
 Variable       Old X    -DE/DX   Delta X   Delta X   Delta X     New X
                                 (Linear)    (Quad)   (Total)
    R1        2.64312  -0.00048   0.00000  -0.00114  -0.00114   2.64199
    R2        2.62979   0.00034   0.00000   0.00070   0.00071   2.63049
    R3        3.38502   0.00257   0.00000   0.00941   0.00941   3.39443
    R4        3.28902  -0.00130   0.00000  -0.00409  -0.00409   3.28493
    R5        2.62418   0.00090   0.00000   0.00179   0.00179   2.62596
    R6        2.05052  -0.00004   0.00000  -0.00012  -0.00012   2.05040
    R7        2.63201   0.00039   0.00000   0.00085   0.00085   2.63286
    R8        2.63391   0.00104   0.00000   0.00231   0.00230   2.63621
    R9        2.05059   0.00054   0.00000   0.00149   0.00149   2.05208
   R10        2.63517   0.00188   0.00000   0.00409   0.00409   2.63926
   R11        2.88748   0.00145   0.00000   0.00482   0.00482   2.89230
   R12        2.05157   0.00084   0.00000   0.00233   0.00233   2.05391
   R13        2.75956  -0.01360   0.00000  -0.01479  -0.01479   2.74477
   R14        2.75939  -0.01068   0.00000  -0.01161  -0.01161   2.74778
   R15        3.10601   0.00807   0.00000   0.01831   0.01831   3.12432
   R16        1.92882  -0.00206   0.00000  -0.00461  -0.00461   1.92420
   R17        1.93131  -0.00346   0.00000  -0.00777  -0.00777   1.92354
   R18        2.75515  -0.00137   0.00000  -0.00369  -0.00371   2.75144
   R19        2.87502   0.00127   0.00000   0.00233   0.00229   2.87731
   R20        2.66094  -0.00020   0.00000  -0.00045  -0.00045   2.66049
   R21        2.57463   0.01250   0.00000   0.02463   0.02467   2.59930
   R22        1.92015  -0.00341   0.00000  -0.00751  -0.00751   1.91263
   R23        2.62382   0.00039   0.00000   0.00013   0.00011   2.62393
   R24        2.61958  -0.00023   0.00000  -0.00052  -0.00053   2.61905
   R25        2.80884   0.00166   0.00000   0.00591   0.00594   2.81478
   R26        2.32443  -0.02478   0.00000  -0.02707  -0.02707   2.29735
   R27        2.62486  -0.00181   0.00000  -0.00379  -0.00380   2.62106
   R28        2.64219  -0.00147   0.00000  -0.00315  -0.00315   2.63905
   R29        2.05369  -0.00028   0.00000  -0.00079  -0.00079   2.05290
   R30        2.64728  -0.00087   0.00000  -0.00183  -0.00182   2.64546
   R31        2.05200   0.00005   0.00000   0.00013   0.00013   2.05213
   R32        2.63732  -0.00072   0.00000  -0.00150  -0.00149   2.63583
   R33        2.05146  -0.00001   0.00000  -0.00004  -0.00004   2.05142
   R34        2.05256  -0.00042   0.00000  -0.00118  -0.00118   2.05138
   R35        1.84060  -0.00349   0.00000  -0.00659  -0.00659   1.83401
    A1        2.09762   0.00000   0.00000  -0.00038  -0.00039   2.09723
    A2        2.13981   0.00072   0.00000   0.00297   0.00293   2.14274
    A3        2.04569  -0.00073   0.00000  -0.00274  -0.00278   2.04291
    A4        2.12962  -0.00026   0.00000  -0.00081  -0.00083   2.12879
    A5        2.09000   0.00004   0.00000  -0.00030  -0.00030   2.08971
    A6        2.06352   0.00021   0.00000   0.00104   0.00103   2.06455
    A7        2.09014  -0.00089   0.00000  -0.00522  -0.00522   2.08492
    A8        2.09223   0.00010   0.00000   0.00020   0.00020   2.09242
    A9        2.10082   0.00079   0.00000   0.00503   0.00502   2.10584
   A10        2.10652   0.00046   0.00000   0.00222   0.00222   2.10873
   A11        2.07785   0.00084   0.00000   0.00540   0.00539   2.08324
   A12        2.09881  -0.00130   0.00000  -0.00759  -0.00760   2.09120
   A13        2.08226  -0.00131   0.00000  -0.00491  -0.00490   2.07736
   A14        2.09898  -0.00126   0.00000  -0.00511  -0.00512   2.09386
   A15        2.10032   0.00257   0.00000   0.00996   0.00996   2.11028
   A16        2.09765   0.00070   0.00000   0.00312   0.00311   2.10077
   A17        2.07853  -0.00200   0.00000  -0.01160  -0.01163   2.06690
   A18        2.10699   0.00130   0.00000   0.00842   0.00839   2.11538
   A19        1.89250  -0.00101   0.00000  -0.01150  -0.01199   1.88051
   A20        1.85876  -0.00278   0.00000  -0.01975  -0.02012   1.83864
   A21        1.90950  -0.00615   0.00000  -0.04344  -0.04416   1.86534
   A22        2.08188   0.00695   0.00000   0.06672   0.06670   2.14858
   A23        1.86385   0.00034   0.00000  -0.00355  -0.00437   1.85949
   A24        1.85310   0.00157   0.00000   0.00308   0.00217   1.85526
   A25        1.97823  -0.00178   0.00000  -0.00551  -0.00559   1.97264
   A26        1.96552   0.00131   0.00000   0.01330   0.01322   1.97874
   A27        1.94865   0.00131   0.00000   0.01647   0.01636   1.96501
   A28        1.95262   0.00080   0.00000   0.00805   0.00805   1.96067
   A29        1.94452   0.00057   0.00000   0.00432   0.00437   1.94889
   A30        1.94420  -0.00141   0.00000  -0.01047  -0.01050   1.93370
   A31        1.76753  -0.00055   0.00000  -0.00295  -0.00304   1.76449
   A32        1.96316   0.00077   0.00000   0.00636   0.00641   1.96957
   A33        1.88363  -0.00008   0.00000  -0.00473  -0.00475   1.87888
   A34        1.99223   0.00163   0.00000   0.01113   0.01082   2.00304
   A35        2.12478   0.00167   0.00000   0.01554   0.01542   2.14020
   A36        2.11918  -0.00299   0.00000  -0.01470  -0.01507   2.10411
   A37        1.91594   0.00149   0.00000   0.00243   0.00232   1.91826
   A38        2.25009  -0.00118   0.00000  -0.00249  -0.00242   2.24768
   A39        2.11715  -0.00031   0.00000   0.00005   0.00006   2.11721
   A40        1.85524  -0.00483   0.00000  -0.01599  -0.01608   1.83916
   A41        2.19804   0.00197   0.00000   0.00625   0.00618   2.20421
   A42        2.22990   0.00286   0.00000   0.00972   0.00963   2.23953
   A43        1.88871   0.00231   0.00000   0.00897   0.00893   1.89764
   A44        2.12695  -0.00040   0.00000  -0.00193  -0.00193   2.12502
   A45        2.26752  -0.00191   0.00000  -0.00705  -0.00701   2.26051
   A46        2.04861   0.00040   0.00000   0.00129   0.00127   2.04988
   A47        2.12008  -0.00010   0.00000  -0.00002  -0.00001   2.12007
   A48        2.11448  -0.00030   0.00000  -0.00126  -0.00125   2.11323
   A49        2.11722  -0.00034   0.00000  -0.00175  -0.00175   2.11547
   A50        2.08390   0.00016   0.00000   0.00083   0.00083   2.08473
   A51        2.08205   0.00018   0.00000   0.00093   0.00093   2.08298
   A52        2.10833   0.00023   0.00000   0.00083   0.00084   2.10917
   A53        2.08438  -0.00020   0.00000  -0.00091  -0.00091   2.08346
   A54        2.09048  -0.00003   0.00000   0.00008   0.00008   2.09056
   A55        2.04808   0.00042   0.00000   0.00149   0.00148   2.04956
   A56        2.11366  -0.00152   0.00000  -0.00871  -0.00870   2.10495
   A57        2.12144   0.00110   0.00000   0.00722   0.00722   2.12867
   A58        1.90681  -0.00033   0.00000  -0.00201  -0.00201   1.90480
    D1       -3.12532   0.00037   0.00000   0.01283   0.01281  -3.11250
    D2        0.00627   0.00016   0.00000   0.00479   0.00477   0.01104
    D3        0.02912   0.00066   0.00000   0.02727   0.02727   0.05639
    D4       -3.12248   0.00045   0.00000   0.01923   0.01923  -3.10325
    D5       -0.00185  -0.00019   0.00000  -0.00591  -0.00590  -0.00775
    D6       -3.13829   0.00015   0.00000   0.00687   0.00679  -3.13150
    D7        3.12757  -0.00046   0.00000  -0.01954  -0.01951   3.10807
    D8       -0.00887  -0.00011   0.00000  -0.00677  -0.00681  -0.01568
    D9        0.91829  -0.00280   0.00000   0.01799   0.01830   0.93660
   D10       -3.10423   0.00330   0.00000   0.07999   0.07960  -3.02464
   D11       -1.10838   0.00071   0.00000   0.05224   0.05233  -1.05606
   D12       -2.21082  -0.00252   0.00000   0.03201   0.03232  -2.17850
   D13        0.04984   0.00358   0.00000   0.09401   0.09362   0.14346
   D14        2.04569   0.00099   0.00000   0.06626   0.06634   2.11204
   D15       -3.14136  -0.00011   0.00000  -0.00396  -0.00396   3.13787
   D16        0.00016  -0.00002   0.00000  -0.00008  -0.00008   0.00009
   D17       -0.00940  -0.00031   0.00000  -0.01171  -0.01171  -0.02111
   D18        3.13213  -0.00022   0.00000  -0.00782  -0.00783   3.12429
   D19       -0.01110  -0.00009   0.00000  -0.00359  -0.00358  -0.01468
   D20        3.13453  -0.00028   0.00000  -0.01152  -0.01155   3.12298
   D21        3.13043  -0.00000   0.00000   0.00033   0.00035   3.13077
   D22       -0.00713  -0.00019   0.00000  -0.00761  -0.00762  -0.01475
   D23        0.01544   0.00005   0.00000   0.00243   0.00242   0.01786
   D24        3.09595   0.00013   0.00000   0.00157   0.00157   3.09751
   D25       -3.13024   0.00024   0.00000   0.01049   0.01046  -3.11978
   D26       -0.04973   0.00032   0.00000   0.00963   0.00961  -0.04013
   D27       -0.00891   0.00009   0.00000   0.00231   0.00231  -0.00660
   D28        3.12744  -0.00027   0.00000  -0.01074  -0.01080   3.11665
   D29       -3.08937   0.00015   0.00000   0.00371   0.00372  -3.08565
   D30        0.04698  -0.00021   0.00000  -0.00933  -0.00939   0.03759
   D31        2.64367   0.00015   0.00000   0.00062   0.00063   2.64430
   D32       -1.67490   0.00029   0.00000   0.00434   0.00433  -1.67057
   D33        0.42955  -0.00038   0.00000  -0.00591  -0.00590   0.42365
   D34       -0.55964   0.00009   0.00000  -0.00078  -0.00078  -0.56042
   D35        1.40497   0.00023   0.00000   0.00294   0.00293   1.40790
   D36       -2.77376  -0.00044   0.00000  -0.00731  -0.00731  -2.78108
   D37        1.20127   0.00074   0.00000   0.00194   0.00204   1.20331
   D38       -1.03201  -0.00068   0.00000  -0.02781  -0.02776  -1.05977
   D39       -0.84353   0.00494   0.00000   0.04006   0.04001  -0.80352
   D40       -3.07681   0.00352   0.00000   0.01031   0.01021  -3.06660
   D41       -3.08241  -0.00463   0.00000  -0.04030  -0.04027  -3.12268
   D42        0.96749  -0.00605   0.00000  -0.07004  -0.07007   0.89742
   D43        1.97715   0.00109   0.00000   0.03870   0.03885   2.01600
   D44       -0.84393   0.00066   0.00000   0.00207   0.00182  -0.84211
   D45       -0.09565   0.00038   0.00000   0.03173   0.03185  -0.06379
[...]
 004714,0.00029781,-0.00004382,-0.00096182,-0.00000348,0.00061019,0.000
 09522,0.00025978,0.00051626,-0.00027464,-0.00004869,-0.00011198,0.0001
 2037,-0.00017681,-0.00024864,0.00027217,-0.00006631,-0.00010990,0.0000
 2210,-0.00000351,0.00002413,-0.00000771,0.00003969,0.00003969,-0.00002
 024,0.00001381,-0.00000239,-0.00038948,0.02070312,0.00087429,0.0127983
 6,0.05992136,-0.08856314,0.10418555,-0.00154183,-0.00380809,0.00226237
 ,-0.00874708,0.01504596,-0.01813989,-0.00518739,-0.00175364,0.00002748
 ,0.00353924,-0.00263683,0.00191386,0.00078889,0.00098089,0.00069153,-0
 .00010681,-0.00040295,0.00014817,-0.00017934,-0.00008779,-0.00033916,-
 0.00003278,0.00121144,-0.00037607,-0.00043418,-0.00014809,-0.00228926,
 -0.00000792,-0.00006658,0.00005100,-0.06837907,0.08086523,0.00034208,-
 0.00018493,-0.00011963,0.00015237,-0.00042255,-0.00017236,-0.00024508,
 -0.00006519,0.00012538,-0.00052842,0.00005724,0.00025141,-0.00003662,-
 0.00000010,-0.00000057,0.00049925,0.00041029,-0.00009681,-0.00061962,-
 0.00072177,0.00025977,0.00010526,0.00077520,0.00016625,0.00078271,-0.0
 0026584,-0.00045967,-0.00016880,0.00007890,0.00029919,-0.00027495,0.00
 012669,0.00024306,-0.00034997,0.00011304,-0.00001710,0.00004764,-0.000
 02370,-0.00002472,0.00006910,-0.00005460,0.00004464,0.00017720,-0.0004
 9421,-0.00108605,-0.00574609,-0.00484677,-0.00725006,-0.20101738,0.103
 56427,-0.21380037,0.00021521,0.00185914,-0.00054646,-0.00213851,-0.001
 11435,-0.00319356,-0.00190034,0.00100831,0.00202382,0.00210224,0.00035
 063,-0.00217692,-0.00094871,-0.00005002,0.00042791,0.00013910,0.000202
 55,-0.00009721,0.00001533,-0.00035936,-0.00010450,-0.00041452,0.000447
 80,0.00013703,0.00060509,-0.00008275,-0.00035923,-0.00004557,-0.000120
 84,0.00008254,0.20986745,-0.09984343,0.22486289,0.00021226,0.00004281,
 -0.00013469,-0.00008592,-0.00023640,0.00002489,0.00006644,0.00000542,-
 0.00004704,-0.00022940,-0.00002268,0.00025666,0.00000255,-0.00000527,0
 .00001200,0.00006897,-0.00001617,0.00018105,0.00031628,-0.00015474,-0.
 00032193,-0.00018857,0.00014851,0.00025699,-0.00012656,0.00025791,0.00
 006706,0.00003893,-0.00006724,-0.00007047,0.00000226,-0.00009623,-0.00
 000083,0.00008399,-0.00006819,0.00000071,-0.00002078,0.00001382,0.0000
 0487,-0.00001398,0.00002086,-0.00000921,0.00001941,-0.00000156,-0.0000
 0770,-0.00126375,0.00052420,0.00110340,0.00003293,-0.00003388,0.000230
 15,0.01010195,0.00871319,-0.00124378,0.00077830,0.00039129,0.00002074,
 0.00192414,-0.00029333,-0.00444536,-0.00026519,0.00022040,-0.00016796,
 -0.12634623,-0.12593640,0.02226004,-0.00755120,-0.02230374,0.00721848,
 -0.00133054,-0.00190178,-0.00572342,-0.00066977,0.00057601,-0.00039885
 ,0.00020646,0.00013855,0.00052714,-0.00018032,-0.00018819,-0.00033900,
 0.00000359,-0.00006378,-0.00002994,0.12576104,-0.00015265,-0.00000509,
 0.00008559,0.00011659,0.00015433,-0.00001188,-0.00003968,-0.00000161,0
 .00002026,0.00013175,0.00001500,-0.00020355,0.00000451,0.00000876,0.00
 000912,-0.00004156,0.00002388,-0.00003738,0.00027304,0.00017940,0.0002
 3316,0.00020774,-0.00021321,-0.00021936,0.00011294,-0.00029584,0.00002
 294,-0.00004220,0.00007379,0.00001737,0.00001570,0.00011637,-0.0000374
 9,-0.00008107,0.00008096,-0.00001733,0.00002258,-0.00001718,-0.0000030
 0,0.00000941,-0.00002248,0.00000955,-0.00002912,0.00000066,0.00004283,
 0.00016525,-0.00122247,-0.00149150,0.00048633,0.00026684,0.00007824,-0
 .01056217,-0.01205993,0.00304699,-0.00146543,-0.00039206,-0.00071248,0
 .00046870,0.00135284,0.00496142,0.00038984,-0.00043613,0.00049334,-0.1
 2738617,-0.25578859,0.05820185,-0.00159667,-0.00129217,0.00225999,-0.0
 0232719,0.00309766,0.00133047,0.00064704,0.00013649,-0.00009774,-0.000
 03829,0.00024134,-0.00005887,-0.00000477,0.00011493,0.00001118,-0.0000
 0264,0.00002495,0.00004644,0.13928578,0.26699250,0.00006674,-0.0000916
 2,-0.00007111,-0.00003438,0.00000318,0.00001450,0.00007390,-0.00000722
 ,-0.00004462,0.00004607,-0.00013105,-0.00003970,0.00001886,0.00000705,
 0.00001428,-0.00015201,0.00033243,0.00007950,-0.00018011,0.00000818,0.
 00006660,-0.00002167,0.00001197,-0.00004504,-0.00001726,0.00018821,0.0
 0014237,0.00000276,-0.00003924,-0.00008943,-0.00001817,-0.00006999,-0.
 00001836,0.00002402,-0.00003879,-0.00001864,-0.00000548,-0.00000036,0.
 00000529,-0.00000458,0.00001048,-0.00000722,0.00002679,-0.00001802,-0.
 00000423,0.00214023,-0.00042299,-0.00051379,-0.00029968,-0.00043977,-0
 .00002877,0.01286841,0.01881194,0.00016591,0.00144172,0.00093155,0.000
 75228,-0.00498010,0.00428362,0.00046019,-0.00032054,0.00024722,-0.0006
 7859,0.02327445,0.05884061,-0.06300483,-0.00799835,-0.01416684,0.00776
 287,-0.00530615,0.00179573,0.00185145,-0.00035046,-0.00015805,-0.00087
 308,-0.00030512,-0.00079285,-0.00037836,-0.00025452,-0.00019200,-0.000
 05878,-0.00007562,0.00000777,0.00003605,-0.02192430,-0.06608419,0.0562
 7863,-0.00001109,0.00000177,0.00002425,0.00001240,0.00000659,-0.000013
 14,-0.00004232,-0.00000645,0.00002518,-0.00000031,0.00000392,0.0000261
 0,-0.00001723,-0.00000285,-0.00000304,-0.00002311,0.00002043,0.0000163
 4,0.00010831,0.00000418,-0.00011746,-0.00003286,-0.00000600,0.00001641
 ,0.00001167,-0.00004201,-0.00010249,0.00000169,0.00000525,0.00006362,-
 0.00000388,0.00001483,0.00002812,-0.00000911,0.00001127,0.00001616,0.0
 0000245,-0.00000211,-0.00000317,0.00000478,-0.00000220,-0.00000061,0.0
 0000774,-0.00001034,-0.00001563,0.00044503,0.00092713,-0.00051712,-0.0
 0024664,0.00007396,-0.00024760,-0.00218286,-0.00355986,-0.00497366,-0.
 00054940,0.00006160,0.00028902,-0.00100349,-0.00065411,0.00025600,0.00
 015760,0.00013338,-0.00008363,-0.00390422,0.01677199,-0.01905783,-0.08
 549873,0.05255498,-0.07657379,0.00946469,-0.01061723,0.01227462,0.0007
 1565,-0.00481803,-0.00153391,0.00000713,-0.00007808,0.00003268,0.00000
 382,0.00000949,-0.00002574,0.00001405,0.00016734,0.00002773,-0.0004935
 4,0.00118407,0.00210345,0.08347430,0.00001388,-0.00000003,-0.00002038,
 -0.00001511,-0.00000546,0.00000906,0.00001840,0.00000142,-0.00001037,-
 0.00000141,-0.00000371,-0.00000569,-0.00000079,0.00000160,0.00000119,0
 .00001283,-0.00000210,0.00001857,0.00011553,0.00003051,0.00001035,-0.0
 0001045,0.00000036,0.00001912,-0.00001081,0.00003114,0.00008013,-0.000
 00107,-0.00000664,-0.00004747,0.00000392,-0.00000982,-0.00002131,0.000
 00724,-0.00000915,-0.00001336,-0.00000184,0.00000258,0.00000228,-0.000
 00395,0.00000197,0.00000034,-0.00000648,0.00000032,0.00000600,-0.00029
 384,0.00043890,-0.00016077,0.00000845,0.00008907,-0.00007919,-0.003388
 58,0.00229880,0.00087361,0.00005894,-0.00034540,-0.00037690,-0.0008241
 9,-0.00050106,-0.00076748,0.00008011,0.00008118,0.00010197,-0.00368089
 ,0.00863250,-0.00629120,0.05241015,-0.16170993,0.13359748,0.01026008,-
 0.01064108,0.01931439,-0.00500973,-0.00195587,0.00259447,0.00001672,-0
 .00000176,-0.00001285,-0.00000964,-0.00000504,-0.00000537,0.00008061,-
 0.00001132,-0.00009515,0.00165799,-0.00056393,-0.00135894,-0.05329316,
 0.16510116,0.00000656,0.00000907,-0.00000472,0.00002294,-0.00001733,-0
 .00001537,-0.00003506,-0.00000472,0.00001954,-0.00001974,0.00000899,0.
 00001749,-0.00000938,0.00000046,0.00000441,-0.00000711,0.00002879,0.00
 002357,0.00017111,-0.00001077,-0.00007212,-0.00004748,0.00000087,0.000
 02564,0.00006648,-0.00004543,-0.00001711,-0.00001839,0.00001309,0.0000
 1844,-0.00001935,0.00001739,0.00000594,-0.00003491,0.00001583,-0.00000
 409,0.00000706,-0.00000372,-0.00000313,0.00000531,-0.00000599,0.000002
 95,0.00000812,-0.00001202,-0.00000496,0.00021909,0.00071526,0.00025319
 ,-0.00019604,0.00011012,-0.00024598,-0.00503485,0.00086007,0.00254057,
 0.00018907,-0.00042380,-0.00043471,0.00030866,-0.00070194,0.00011381,-
 0.00002608,0.00014553,-0.00000462,-0.00364546,0.01028589,-0.00641601,-
 0.07664696,0.13365662,-0.20129296,-0.00323050,0.00241071,-0.00031615,-
 0.00139254,0.00272646,0.00383222,-0.00011830,-0.00015145,-0.00020102,0
 .00000242,0.00001038,-0.00000865,0.00011789,-0.00002237,-0.00012700,0.
 00176106,-0.00169826,-0.00146594,0.08585701,-0.14642290,0.20545107,0.0
 0001057,0.00002689,0.00000569,0.00002661,-0.00003282,-0.00002200,-0.00
 003946,-0.00000162,0.00002152,-0.00002501,0.00002656,0.00002532,-0.000
 00245,0.00000009,0.00000260,0.00000405,-0.00000763,-0.00000269,0.00004
 648,-0.00004907,-0.00003811,-0.00003199,0.00001934,0.00002824,0.000030
 93,-0.00011572,-0.00009647,-0.00000560,0.00002935,0.00006355,0.0000030
 5,0.00004807,0.00002276,-0.00002456,0.00003078,0.00001233,0.00000777,-
 0.00000724,-0.00000344,0.00000707,-0.00000786,0.00000095,0.00000902,-0
 .00001225,-0.00001433,-0.00027186,0.00032144,0.00021983,-0.00032145,0.
 00005197,-0.00010822,0.00031316,0.00002909,0.00069998,0.00024746,-0.00
 069171,0.00031087,0.00285078,-0.00018273,-0.00360831,-0.00000067,0.000
 23721,-0.00018725,0.00185602,-0.00423992,-0.00103799,-0.00855225,-0.00
 136962,-0.00881402,-0.25244904,-0.05705481,-0.13188293,-0.00348530,-0.
 00322945,-0.00359595,0.00005418,-0.00001672,0.00005022,0.00001135,0.00
 001699,0.00000123,-0.00005280,-0.00000947,0.00004525,-0.00051461,-0.00
 000839,-0.00041452,-0.00071226,0.00119900,0.00185948,0.26187018,-0.000
 03939,-0.00000643,0.00001666,0.00001906,0.00003978,-0.00000091,-0.0000
 0460,-0.00000024,0.00000263,0.00002884,-0.00000268,-0.00003381,0.00000
 258,0.00000039,-0.00000045,-0.00001630,-0.00000632,-0.00002308,0.00000
 019,0.00005185,0.00000976,0.00003973,-0.00003324,-0.00004019,0.0000299
 6,-0.00000618,0.00001779,-0.00001011,0.00000201,-0.00000613,-0.0000089
 4,-0.00000146,-0.00000841,-0.00001433,0.00000284,-0.00000523,0.0000021
 0,-0.00000032,-0.00000079,0.00000060,-0.00000149,0.00000247,-0.0000063
 2,0.00000622,0.00001300,0.00026002,-0.00033206,-0.00017299,0.00040739,
 -0.00006457,0.00020077,0.00024474,-0.00124292,0.00067746,0.00039953,0.
 00090873,0.00001370,-0.00048043,-0.00050509,0.00555156,-0.00006367,-0.
 00016546,0.00007684,-0.00397742,-0.00232544,0.00372752,-0.02218794,-0.
 00118847,-0.01468107,-0.05694324,-0.06792716,-0.02493874,0.01729293,0.
 00859802,0.01058032,-0.00007070,0.00004959,-0.00009372,0.00002167,0.00
 001117,0.00002578,0.00011647,0.00006575,-0.00003006,-0.00106628,-0.000
 16067,-0.00069968,0.00159497,-0.00035903,-0.00146681,0.06350534,0.0650
 9198,-0.00003309,-0.00002325,0.00001150,0.00001501,0.00003541,-0.00000
 465,-0.00001052,-0.00000379,0.00000753,0.00001207,-0.00002050,-0.00002
 453,-0.00000349,-0.00000037,0.00000059,-0.00003636,0.00002997,0.000012
 66,0.00002279,0.00000518,0.00004788,0.00002020,-0.00000509,-0.00002823
 ,0.00005085,-0.00000517,-0.00000028,-0.00001472,0.00000380,0.00000507,
 -0.00001982,0.00000084,0.00000560,-0.00002430,0.00000550,-0.00000462,0
 .00000380,-0.00000129,-0.00000190,0.00000380,-0.00000346,0.00000123,0.
 00001754,-0.00000847,-0.00000810,0.00032548,-0.00004728,-0.00044804,-0
 .00034891,0.00001989,-0.00049857,0.00064850,0.00053371,-0.00045933,-0.
 00057555,-0.00095174,0.00079167,-0.00347498,0.00571887,0.00026580,0.00
 005692,0.00036599,-0.00022651,-0.00119782,0.00352943,0.00337194,0.0067
 7933,0.00239927,0.00727133,-0.13201914,-0.02503258,-0.12811372,-0.0188
 2715,-0.00623329,-0.00681348,-0.00009863,-0.00016974,-0.00009302,0.000
 00452,-0.00000491,0.00000438,-0.00005091,-0.00013127,-0.00004910,0.000
 39863,0.00015505,0.00021495,0.00155010,-0.00179106,-0.00148181,0.14477
 970,0.02331603,0.12756037,0.00000873,0.00003806,0.00001635,-0.00000013
 ,-0.00001362,-0.00000831,-0.00002519,0.00000294,0.00001252,-0.00000468
 ,0.00002622,0.00002545,-0.00000347,0.00000049,0.00000340,0.00000338,0.
 00001616,0.00000534,0.00000611,0.00009585,-0.00022881,-0.00004663,-0.0
 0005280,0.00004518,-0.00005926,-0.00017321,-0.00000619,0.00001250,0.00
 004096,0.00001660,0.00005419,0.00008536,-0.00001787,0.00000857,0.00003
 736,0.00000168,0.00000508,-0.00000703,0.00000205,-0.00000080,-0.000007
 35,0.00000068,-0.00001967,-0.00001890,-0.00000566,-0.00014831,-0.00129
 539,0.00086739,0.00057476,0.00039183,-0.00008248,-0.00114867,-0.001732
 87,-0.00559873,-0.00136763,-0.00093853,0.00306951,-0.00858779,-0.02264
 043,0.00692631,0.00097713,0.00150573,-0.00039576,-0.00060050,0.0006268
 9,-0.00026337,0.00191697,-0.00022789,-0.00448211,0.01004779,0.00986296
 ,-0.00273001,-0.12612599,-0.12698870,0.02520597,-0.00028596,0.00004047
 ,-0.00036964,0.00000527,0.00001085,-0.00001270,0.00004563,-0.00001372,
 -0.00012214,-0.00033305,0.00028371,0.00059006,0.00028631,0.00060516,-0
 .00012230,-0.00086482,0.00093734,0.00203188,0.12567640,-0.00000876,-0.
 00000623,0.00001437,0.00001387,0.00000936,-0.00000842,-0.00001855,-0.0
 0000273,0.00000995,0.00000638,-0.00000471,0.00000559,-0.00000356,-0.00
 000068,0.00000099,-0.00002769,0.00000419,0.00001539,-0.00007083,-0.000
 01986,-0.00009836,-0.00000440,0.00000239,-0.00001638,0.00003826,-0.000
 00951,-0.00002100,-0.00000967,0.00000406,0.00001598,-0.00001451,-0.000
 00044,0.00000936,-0.00002037,0.00000558,-0.00000091,0.00000371,-0.0000
 0194,-0.00000164,0.00000361,-0.00000242,0.00000176,0.00000119,-0.00000
 153,-0.00000895,-0.00006390,-0.00002564,0.00017888,-0.00020937,0.00000
 936,0.00000278,-0.00207907,0.00302954,0.00155241,0.00129577,-0.0017817
 3,-0.00071154,-0.00354825,-0.00161436,0.00119160,-0.00013602,0.0005541
 1,-0.00050910,0.00060582,0.00008437,-0.00022228,0.00001914,0.00128780,
 0.00477245,-0.01011253,-0.00942591,0.00209210,-0.12651010,-0.25964529,
 0.06149748,0.00002447,-0.00005998,-0.00000540,-0.00000266,0.00000029,-
 0.00000217,-0.00006352,0.00004417,0.00005563,0.00032244,-0.00037653,-0
 .00044321,-0.00045396,-0.00057546,-0.00001969,0.00143839,-0.00046671,-
 0.00166848,0.13958095,0.26899304,-0.00000985,-0.00001640,0.00001949,-0
 .00000098,0.00003703,0.00000162,-0.00001502,-0.00000281,0.00000616,0.0
 0004572,-0.00000367,-0.00000147,-0.00000294,-0.00000135,-0.00000158,-0
 .00003753,-0.00003800,0.00001917,-0.00004835,0.00010303,-0.00026694,-0
 .00000593,0.00000799,-0.00001686,0.00004421,0.00001666,0.00003766,-0.0
 0001151,-0.00000305,-0.00001665,-0.00002034,-0.00001024,-0.00001594,-0
 .00001848,-0.00000143,-0.00001072,0.00000110,-0.00000058,-0.00000046,-
 0.00000027,-0.00000253,0.00000484,-0.00000816,0.00000445,0.00001352,-0
 .00051034,-0.00086112,0.00057803,0.00055244,0.00070625,0.00014938,-0.0
 0518429,0.00177049,0.00183700,0.00112045,-0.00265956,-0.00127516,-0.00
 712184,-0.01425501,0.00873205,0.00088699,0.00085003,0.00013565,-0.0003
 5288,-0.00020676,-0.00097745,-0.00456110,0.00464401,0.00040644,0.01223
 753,0.01809706,0.00077165,0.02447884,0.06109586,-0.06590473,0.00000728
 ,0.00007755,-0.00008593,-0.00000776,-0.00000171,-0.00000747,-0.0000636
 2,0.00008984,0.00006510,0.00055639,-0.00045758,-0.00052123,0.00066127,
 0.00084726,-0.00018531,0.00168238,-0.00204328,-0.00133227,-0.02428747,
 -0.06772957,0.05781077,0.00025653,0.00011250,-0.00025936,-0.00008324,-
 0.00028091,0.00016158,0.00015581,-0.00000590,-0.00007792,-0.00045053,-
 0.00016984,-0.00012315,0.00000482,-0.00000647,0.00003856,-0.00044335,0
 .00018370,0.00009288,0.00157555,0.00117657,0.00070501,-0.00069845,0.00
 029449,0.00028038,-0.00010150,0.00058082,0.00016288,0.00003493,-0.0001
 3737,-0.00012822,-0.00005501,-0.00024166,0.00002641,0.00009902,-0.0001
 6045,-0.00002095,-0.00003825,0.00003453,0.00001764,-0.00002500,0.00006
 100,-0.00000980,0.00015686,-0.00005275,-0.00003024,0.00363647,0.002667
 04,0.00808868,0.00095422,0.00207732,0.00213265,0.00006435,-0.00023039,
 -0.00041269,-0.00202036,-0.00084277,-0.00090164,0.00088561,0.00021170,
 0.00016583,0.00058780,0.00065127,0.00002161,0.00027229,-0.00016726,-0.
 00001006,0.00008460,0.00001410,0.00014873,-0.00002143,-0.00021318,0.00
 012649,-0.00025256,0.00002884,-0.00025690,-0.27295804,-0.01067034,-0.2
 5804167,0.00028260,-0.00047884,0.00066523,0.00045428,-0.00037870,-0.00
 060632,-0.00000611,-0.00002699,-0.00001444,0.00001343,0.00000294,0.000
 00220,0.00000547,-0.00001380,0.00001429,-0.00000628,0.00000369,-0.0000
 0598,0.26763544,-0.00009108,-0.00029119,-0.00000876,0.00006320,0.00015
 523,0.00000730,-0.00008171,-0.00005064,0.00004704,0.00005981,-0.000287
 62,-0.00013516,-0.00005399,0.00000022,0.00003148,-0.00053355,0.0010605
 2,-0.00017063,0.00034906,0.00027667,0.00119656,0.00015255,-0.00028974,
 0.00011888,0.00010277,0.00017485,-0.00014198,-0.00002389,-0.00003816,0
 .00005537,-0.00008413,-0.00007694,0.00009401,-0.00004804,-0.00003209,0
 .00001196,0.00000697,0.00000698,-0.00000867,0.00002164,0.00000399,-0.0
 0001265,0.00008175,-0.00007820,-0.00010290,-0.02717882,-0.00720595,-0.
 03128649,0.00153507,0.00429539,0.00182388,0.00208021,-0.00410261,-0.00
 277182,-0.00376159,-0.00217173,-0.00128050,0.00003379,-0.00006457,0.00
 003707,0.00095694,0.00107303,0.00001027,-0.00014354,0.00003984,0.00005
 612,-0.00026654,0.00011779,0.00026655,-0.00004394,-0.00011721,0.000004
 70,-0.00041842,-0.00003367,0.00018917,0.02045440,-0.03217233,-0.005516
 48,0.00001195,-0.00032369,0.00095330,0.00072844,-0.00175569,-0.0003205
 2,0.00013664,-0.00003279,-0.00032514,-0.00000074,-0.00000469,-0.000008
 34,0.00005652,-0.00003238,-0.00001720,-0.00007885,-0.00000659,-0.00005
 287,0.00597709,0.04196400,-0.00082828,0.00013115,0.00036573,0.00021808
 ,0.00062896,-0.00018388,-0.00038639,-0.00000485,0.00021835,0.00044941,
 0.00025715,-0.00017240,-0.00002998,-0.00001294,0.00004941,0.00034287,-
 0.00037898,0.00003334,-0.00052998,0.00110961,0.00070826,0.00048507,-0.
 00063025,-0.00000293,0.00047587,-0.00122042,-0.00031425,-0.00014903,0.
 00028914,0.00030850,0.00000176,0.00047196,-0.00004106,-0.00040032,0.00
 034319,-0.00002748,0.00009271,-0.00006375,-0.00001839,0.00005274,-0.00
 009006,0.00006366,-0.00004749,0.00004977,0.00008410,-0.01906332,0.0010
 9777,-0.01631270,0.00230733,0.00090738,0.00107347,0.00049069,-0.004195
 07,-0.00113900,-0.00077969,-0.00013027,-0.00000932,0.00017713,0.000328
 51,-0.00062176,0.00033665,0.00037474,-0.00031115,-0.00003364,-0.000138
 95,0.00033164,0.00010713,0.00010274,0.00006366,0.00002666,-0.00024919,
 0.00010909,-0.00036225,-0.00006161,-0.00012390,-0.23056043,-0.03718345
 ,-0.24659636,0.00032736,0.00079206,-0.00127516,-0.00066138,0.00004674,
 0.00065626,-0.00001578,0.00010484,0.00001682,0.00000075,0.00000418,-0.
 00000718,-0.00000568,0.00001307,0.00001566,-0.00008681,0.00005038,0.00
 003165,0.24804826,0.03725645,0.26302731\\-0.00000417,-0.00000580,0.000
 00795,0.00000207,0.00000644,0.00000357,0.00000274,0.00000019,0.0000047
 0,0.00000777,-0.00000302,0.,0.00000130,-0.00000008,0.00000593,-0.00000
 402,-0.00000601,0.00000684,0.00000114,0.00000956,0.00000029,0.00000634
 ,-0.00000894,-0.00000469,-0.00000220,-0.00000074,0.00000733,0.00000276
 ,0.00000243,-0.00000504,-0.00000046,0.00000140,-0.00000331,-0.00000304
 ,-0.00000314,0.00000739,0.00000017,-0.00000326,-0.00000012,-0.00000047
 ,0.00000077,0.00000342,-0.00000278,0.00000014,0.00000065,0.00000016,-0
 .00000038,0.00000687,0.00000806,0.00000210,-0.00000612,-0.00000029,-0.
 00000196,0.00000087,-0.00001760,0.00000145,-0.00000514,0.00000417,0.00
 000241,-0.00000298,-0.00000116,-0.00000582,-0.00000219,-0.00000243,0.0
 0000534,-0.00000526,0.00000501,0.00000427,-0.00000082,0.00000078,0.000
 00044,-0.00000217,-0.00000269,-0.00000070,-0.00000548,-0.00000201,-0.0
 0000393,-0.00000425,0.00000140,-0.00000023,0.00000189,-0.00000377,-0.0
 0000254,0.00000111,0.00000192,0.00000141,-0.00000044,0.00000324,0.0000
 0427,-0.00000241,0.00000159,0.00000429,-0.00000504,-0.00000136,0.00000
 272,-0.00000632,-0.00000213,-0.00000307,0.00000297\\\@
 The archive entry for this job was punched.


 ON INDUCTION, OR "WHY DO YOU BELIEVE THE SUN WILL RISE TOMORROW?":

 ... THE FARMER WHO HAS FED THE CHICKEN EVERY DAY THROUGHOUT ITS
 LIFE AT LAST WRINGS ITS NECK INSTEAD, SHOWING THAT MORE REFINED VIEWS
 AS TO THE UNIFORMITY OF NATURE WOULD HAVE BEEN USEFUL TO THE CHICKEN.

                               -- BERTRAND RUSSELL
 Job cpu time:       0 days  5 hours 49 minutes  4.0 seconds.
 Elapsed time:       0 days  0 hours 23 minutes  8.7 seconds.
 File lengths (MBytes):  RWF=    745 Int=      0 D2E=      0 Chk=     18 Scr=      1
 Normal termination of Gaussian 16 at Sat Jul  2 12:23:01 2022.
