 Entering Gaussian System, Link 0=g16
 AtFile(1): /home/561/yj5695/Basis/6-31pGd.gbs
 Initial command:
 /apps/gaussian/g16c01/g16/l1.exe "/jobfs/49776062.gadi-pbs/Gau-3613460.inp" -scrdir="/jobfs/49776062.gadi-pbs/"
 Entering Link 1 = /apps/gaussian/g16c01/g16/l1.exe PID=   3613461.
  
 Copyright (c) 1988-2019, Gaussian, Inc.  All Rights Reserved.
  
 This is part of the Gaussian(R) 16 program.  It is based on
 the Gaussian(R) 09 system (copyright 2009, Gaussian, Inc.),
 the Gaussian(R) 03 system (copyright 2003, Gaussian, Inc.),
 the Gaussian(R) 98 system (copyright 1998, Gaussian, Inc.),
 the Gaussian(R) 94 system (copyright 1995, Gaussian, Inc.),
 the Gaussian 92(TM) system (copyright 1992, Gaussian, Inc.),
 the Gaussian 90(TM) system (copyright 1990, Gaussian, Inc.),
 the Gaussian 88(TM) system (copyright 1988, Gaussian, Inc.),
 the Gaussian 86(TM) system (copyright 1986, Carnegie Mellon
 University), and the Gaussian 82(TM) system (copyright 1983,
 Carnegie Mellon University). Gaussian is a federally registered
 trademark of Gaussian, Inc.
  
 This software contains proprietary and confidential information,
 including trade secrets, belonging to Gaussian, Inc.
  
 This software is provided under written license and may be
 used, copied, transmitted, or stored only in accord with that
 written license.
  
 The following legend is applicable only to US Government
 contracts under FAR:
  
                    RESTRICTED RIGHTS LEGEND
  
 Use, reproduction and disclosure by the US Government is
 subject to restrictions as set forth in subparagraphs (a)
 and (c) of the Commercial Computer Software - Restricted
 Rights clause in FAR 52.227-19.
  
 Gaussian, Inc.
 340 Quinnipiac St., Bldg. 40, Wallingford CT 06492
  
  
 ---------------------------------------------------------------
 Warning -- This program may not be used in any manner that
 competes with the business of Gaussian, Inc. or will provide
 assistance to any competitor of Gaussian, Inc.  The licensee
 of this program is prohibited from giving any competitor of
 Gaussian, Inc. access to this program.  By using this program,
 the user acknowledges that Gaussian, Inc. is engaged in the
 business of creating and licensing software in the field of
 computational chemistry and represents and warrants to the
 licensee that it is not a competitor of Gaussian, Inc. and that
 it will not use this program in any manner prohibited above.
 ---------------------------------------------------------------
  

 Cite this work as:
 Gaussian 16, Revision C.01,
 M. J. Frisch, G. W. Trucks, H. B. Schlegel, G. E. Scuseria, 
 M. A. Robb, J. R. Cheeseman, G. Scalmani, V. Barone, 
 G. A. Petersson, H. Nakatsuji, X. Li, M. Caricato, A. V. Marenich, 
 J. Bloino, B. G. Janesko, R. Gomperts, B. Mennucci, H. P. Hratchian, 
 J. V. Ortiz, A. F. Izmaylov, J. L. Sonnenberg, D. Williams-Young, 
 F. Ding, F. Lipparini, F. Egidi, J. Goings, B. Peng, A. Petrone, 
 T. Henderson, D. Ranasinghe, V. G. Zakrzewski, J. Gao, N. Rega, 
 G. Zheng, W. Liang, M. Hada, M. Ehara, K. Toyota, R. Fukuda, 
 J. Hasegawa, M. Ishida, T. Nakajima, Y. Honda, O. Kitao, H. Nakai, 
 T. Vreven, K. Throssell, J. A. Montgomery, Jr., J. E. Peralta, 
 F. Ogliaro, M. J. Bearpark, J. J. Heyd, E. N. Brothers, K. N. Kudin, 
 V. N. Staroverov, T. A. Keith, R. Kobayashi, J. Normand, 
 K. Raghavachari, A. P. Rendell, J. C. Burant, S. S. Iyengar, 
 J. Tomasi, M. Cossi, J. M. Millam, M. Klene, C. Adamo, R. Cammi, 
 J. W. Ochterski, R. L. Martin, K. Morokuma, O. Farkas, 
 J. B. Foresman, and D. J. Fox, Gaussian, Inc., Wallingford CT, 2019.
 
 ******************************************
 Gaussian 16:  ES64L-G16RevC.01  3-Jul-2019
                 1-Jul-2022 
 ******************************************
 %nproc=16
 Will use up to   16 processors via shared memory.
 %mem=50gb
 --------------------------------------------------
 #M062X/gen 6D INT(grid=ultrafine) OPT Freq=noraman
 --------------------------------------------------
 1/18=20,19=15,26=4,38=1/1,3;
 2/9=110,12=2,17=6,18=5,40=1/2;
 3/5=7,8=2,11=2,25=1,30=1,71=1,74=-55,75=-5/1,2,3;
 4//1;
 5/5=2,38=5/2;
 6/7=2,8=2,9=2,10=2,28=1/1;
 7//1,2,3,16;
 1/18=20,19=15,26=4/3(2);
 2/9=110/2;
 99//99;
 2/9=110/2;
 3/5=7,6=1,8=2,11=2,25=1,30=1,71=1,74=-55,75=-5,82=7/1,2,3;
 4/5=5,16=3,69=1/1;
 5/5=2,38=5/2;
 7//1,2,3,16;
 1/18=20,19=15,26=4/3(-5);
 2/9=110/2;
 6/7=2,8=2,9=2,10=2,19=2,28=1/1;
 99/9=1/99;
 ----------
 HA.32.freq
 ----------
 Symbolic Z-matrix:
 Charge =  0 Multiplicity = 1
 C                    -1.41668   0.67839  -0.7869 
 C                    -2.55406   0.67509  -1.61939 
 Cl                   -4.15626   0.75533  -0.94696 
 C                    -2.44185   0.62892  -2.98918 
 H                    -3.33045   0.6352   -3.61264 
 C                    -1.17055   0.57324  -3.60605 
 C                    -0.04079   0.58615  -2.75606 
 S                     1.58898   0.52751  -3.43316 
 C                    -0.16086   0.64427  -1.37445 
 H                     0.72652   0.66606  -0.74717 
 S                    -1.50173   0.71059   0.98796 
 O                    -2.37765  -0.36872   1.43769 
 O                    -0.12116   0.75437   1.46394 
 N                    -2.20296   2.11522   1.48296 
 H                    -3.19337   2.17006   1.24143 
 H                    -1.69446   2.939     1.15513 
 N                    -1.06488   0.56196  -4.95475 
 C                     0.19574   0.28895  -5.61112 
 N                     1.23336   1.09791  -4.95589 
 O                     2.45897   1.501    -2.77315 
 O                     2.06376  -0.86189  -3.45404 
 H                     0.13417   0.61285  -6.64764 
 H                     2.08905   1.153    -5.51676 
 H                    -1.91298   0.44089  -5.49758 
 H                     0.43567  -0.7816   -5.58255 
 

 GradGradGradGradGradGradGradGradGradGradGradGradGradGradGradGradGradGrad
 Berny optimization.
 Initialization pass.
                           ----------------------------
                           !    Initial Parameters    !
                           ! (Angstroms and Degrees)  !
 --------------------------                            --------------------------
 ! Name  Definition              Value          Derivative Info.                !
 --------------------------------------------------------------------------------
 ! R1    R(1,2)                  1.4095         estimate D2E/DX2                !
 ! R2    R(1,9)                  1.3869         estimate D2E/DX2                !
 ! R3    R(1,11)                 1.7772         estimate D2E/DX2                !
 ! R4    R(2,3)                  1.7394         estimate D2E/DX2                !
 ! R5    R(2,4)                  1.3751         estimate D2E/DX2                !
 ! R6    R(4,5)                  1.0855         estimate D2E/DX2                !
 ! R7    R(4,6)                  1.4142         estimate D2E/DX2                !
 ! R8    R(6,7)                  1.4139         estimate D2E/DX2                !
 ! R9    R(6,17)                 1.3529         estimate D2E/DX2                !
 ! R10   R(7,8)                  1.7658         estimate D2E/DX2                !
 ! R11   R(7,9)                  1.388          estimate D2E/DX2                !
 ! R12   R(8,19)                 1.6645         estimate D2E/DX2                !
 ! R13   R(8,20)                 1.4629         estimate D2E/DX2                !
 ! R14   R(8,21)                 1.4684         estimate D2E/DX2                !
 ! R15   R(9,10)                 1.0869         estimate D2E/DX2                !
 ! R16   R(11,12)                1.461          estimate D2E/DX2                !
 ! R17   R(11,13)                1.461          estimate D2E/DX2                !
 ! R18   R(11,14)                1.6461         estimate D2E/DX2                !
 ! R19   R(14,15)                1.0209         estimate D2E/DX2                !
 ! R20   R(14,16)                1.0221         estimate D2E/DX2                !
 ! R21   R(17,18)                1.4472         estimate D2E/DX2                !
 ! R22   R(17,24)                1.0142         estimate D2E/DX2                !
 ! R23   R(18,19)                1.4698         estimate D2E/DX2                !
 ! R24   R(18,22)                1.0877         estimate D2E/DX2                !
 ! R25   R(18,25)                1.0975         estimate D2E/DX2                !
 ! R26   R(19,23)                1.0246         estimate D2E/DX2                !
 ! A1    A(2,1,9)              118.7118         estimate D2E/DX2                !
 ! A2    A(2,1,11)             123.4548         estimate D2E/DX2                !
 ! A3    A(9,1,11)             117.8313         estimate D2E/DX2                !
 ! A4    A(1,2,3)              120.9866         estimate D2E/DX2                !
 ! A5    A(1,2,4)              121.5042         estimate D2E/DX2                !
 ! A6    A(3,2,4)              117.5021         estimate D2E/DX2                !
 ! A7    A(2,4,5)              120.339          estimate D2E/DX2                !
 ! A8    A(2,4,6)              120.6096         estimate D2E/DX2                !
 ! A9    A(5,4,6)              119.0513         estimate D2E/DX2                !
 ! A10   A(4,6,7)              117.1122         estimate D2E/DX2                !
 ! A11   A(4,6,17)             120.3587         estimate D2E/DX2                !
 ! A12   A(7,6,17)             122.4789         estimate D2E/DX2                !
 ! A13   A(6,7,8)              120.4426         estimate D2E/DX2                !
 ! A14   A(6,7,9)              121.983          estimate D2E/DX2                !
 ! A15   A(8,7,9)              117.5744         estimate D2E/DX2                !
 ! A16   A(7,8,19)              98.1765         estimate D2E/DX2                !
 ! A17   A(7,8,20)             110.7191         estimate D2E/DX2                !
 ! A18   A(7,8,21)             109.59           estimate D2E/DX2                !
 ! A19   A(19,8,20)            108.1648         estimate D2E/DX2                !
 ! A20   A(19,8,21)            112.3532         estimate D2E/DX2                !
 ! A21   A(20,8,21)            116.3438         estimate D2E/DX2                !
 ! A22   A(1,9,7)              120.0687         estimate D2E/DX2                !
 ! A23   A(1,9,10)             119.6216         estimate D2E/DX2                !
 ! A24   A(7,9,10)             120.3095         estimate D2E/DX2                !
 ! A25   A(1,11,12)            108.8284         estimate D2E/DX2                !
 ! A26   A(1,11,13)            106.3011         estimate D2E/DX2                !
 ! A27   A(1,11,14)            109.6429         estimate D2E/DX2                !
 ! A28   A(12,11,13)           119.2356         estimate D2E/DX2                !
 ! A29   A(12,11,14)           106.4047         estimate D2E/DX2                !
 ! A30   A(13,11,14)           106.2011         estimate D2E/DX2                !
 ! A31   A(11,14,15)           112.8273         estimate D2E/DX2                !
 ! A32   A(11,14,16)           112.2934         estimate D2E/DX2                !
 ! A33   A(15,14,16)           111.3141         estimate D2E/DX2                !
 ! A34   A(6,17,18)            121.4493         estimate D2E/DX2                !
 ! A35   A(6,17,24)            117.9861         estimate D2E/DX2                !
 ! A36   A(18,17,24)           117.5888         estimate D2E/DX2                !
 ! A37   A(17,18,19)           107.9932         estimate D2E/DX2                !
 ! A38   A(17,18,22)           109.0699         estimate D2E/DX2                !
 ! A39   A(17,18,25)           111.2621         estimate D2E/DX2                !
 ! A40   A(19,18,22)           107.51           estimate D2E/DX2                !
 ! A41   A(19,18,25)           111.7729         estimate D2E/DX2                !
 ! A42   A(22,18,25)           109.1275         estimate D2E/DX2                !
 ! A43   A(8,19,18)            111.7181         estimate D2E/DX2                !
 ! A44   A(8,19,23)            109.9245         estimate D2E/DX2                !
 ! A45   A(18,19,23)           112.0323         estimate D2E/DX2                !
 ! D1    D(9,1,2,3)           -178.5155         estimate D2E/DX2                !
 ! D2    D(9,1,2,4)              0.4941         estimate D2E/DX2                !
 ! D3    D(11,1,2,3)             2.0091         estimate D2E/DX2                !
 ! D4    D(11,1,2,4)          -178.9814         estimate D2E/DX2                !
 ! D5    D(2,1,9,7)             -1.0325         estimate D2E/DX2                !
 ! D6    D(2,1,9,10)           178.8014         estimate D2E/DX2                !
 ! D7    D(11,1,9,7)           178.4727         estimate D2E/DX2                !
 ! D8    D(11,1,9,10)           -1.6935         estimate D2E/DX2                !
 ! D9    D(2,1,11,12)           52.4171         estimate D2E/DX2                !
 ! D10   D(2,1,11,13)         -177.9889         estimate D2E/DX2                !
 ! D11   D(2,1,11,14)          -63.5931         estimate D2E/DX2                !
 ! D12   D(9,1,11,12)         -127.0627         estimate D2E/DX2                !
 ! D13   D(9,1,11,13)            2.5313         estimate D2E/DX2                !
 ! D14   D(9,1,11,14)          116.9271         estimate D2E/DX2                !
 ! D15   D(1,2,4,5)           -179.5115         estimate D2E/DX2                !
 ! D16   D(1,2,4,6)              0.4617         estimate D2E/DX2                !
 ! D17   D(3,2,4,5)             -0.4688         estimate D2E/DX2                !
 ! D18   D(3,2,4,6)            179.5045         estimate D2E/DX2                !
 ! D19   D(2,4,6,7)             -0.8433         estimate D2E/DX2                !
 ! D20   D(2,4,6,17)          -178.3303         estimate D2E/DX2                !
 ! D21   D(5,4,6,7)            179.1303         estimate D2E/DX2                !
 ! D22   D(5,4,6,17)             1.6433         estimate D2E/DX2                !
 ! D23   D(4,6,7,8)           -179.7113         estimate D2E/DX2                !
 ! D24   D(4,6,7,9)              0.3006         estimate D2E/DX2                !
 ! D25   D(17,6,7,8)            -2.2819         estimate D2E/DX2                !
 ! D26   D(17,6,7,9)           177.7301         estimate D2E/DX2                !
 ! D27   D(4,6,17,18)         -169.8592         estimate D2E/DX2                !
 ! D28   D(4,6,17,24)           -9.8492         estimate D2E/DX2                !
 ! D29   D(7,6,17,18)           12.7925         estimate D2E/DX2                !
 ! D30   D(7,6,17,24)          172.8025         estimate D2E/DX2                !
 ! D31   D(6,7,8,19)            22.2849         estimate D2E/DX2                !
 ! D32   D(6,7,8,20)           135.3065         estimate D2E/DX2                !
 ! D33   D(6,7,8,21)           -95.0353         estimate D2E/DX2                !
 ! D34   D(9,7,8,19)          -157.7266         estimate D2E/DX2                !
 ! D35   D(9,7,8,20)           -44.7049         estimate D2E/DX2                !
 ! D36   D(9,7,8,21)            84.9532         estimate D2E/DX2                !
 ! D37   D(6,7,9,1)              0.6428         estimate D2E/DX2                !
 ! D38   D(6,7,9,10)          -179.1899         estimate D2E/DX2                !
 ! D39   D(8,7,9,1)           -179.3455         estimate D2E/DX2                !
 ! D40   D(8,7,9,10)             0.8217         estimate D2E/DX2                !
 ! D41   D(7,8,19,18)          -55.9427         estimate D2E/DX2                !
 ! D42   D(7,8,19,23)          179.0359         estimate D2E/DX2                !
 ! D43   D(20,8,19,18)        -170.9865         estimate D2E/DX2                !
 ! D44   D(20,8,19,23)          63.9921         estimate D2E/DX2                !
 ! D45   D(21,8,19,18)          59.2293         estimate D2E/DX2                !
 ! D46   D(21,8,19,23)         -65.7921         estimate D2E/DX2                !
 ! D47   D(1,11,14,15)          68.4188         estimate D2E/DX2                !
 ! D48   D(1,11,14,16)         -58.3654         estimate D2E/DX2                !
 ! D49   D(12,11,14,15)        -49.1168         estimate D2E/DX2                !
 ! D50   D(12,11,14,16)       -175.9011         estimate D2E/DX2                !
 ! D51   D(13,11,14,15)       -177.1212         estimate D2E/DX2                !
 ! D52   D(13,11,14,16)         56.0946         estimate D2E/DX2                !
 ! D53   D(6,17,18,19)         -46.839          estimate D2E/DX2                !
 ! D54   D(6,17,18,22)        -163.3897         estimate D2E/DX2                !
 ! D55   D(6,17,18,25)          76.1769         estimate D2E/DX2                !
 ! D56   D(24,17,18,19)        153.075          estimate D2E/DX2                !
 ! D57   D(24,17,18,22)         36.5244         estimate D2E/DX2                !
 ! D58   D(24,17,18,25)        -83.9091         estimate D2E/DX2                !
 ! D59   D(17,18,19,8)          71.6293         estimate D2E/DX2                !
 ! D60   D(17,18,19,23)       -164.5284         estimate D2E/DX2                !
 ! D61   D(22,18,19,8)        -170.8105         estimate D2E/DX2                !
 ! D62   D(22,18,19,23)        -46.9682         estimate D2E/DX2                !
 ! D63   D(25,18,19,8)         -51.0748         estimate D2E/DX2                !
 ! D64   D(25,18,19,23)         72.7676         estimate D2E/DX2                !
 --------------------------------------------------------------------------------
 Trust Radius=3.00D-01 FncErr=1.00D-07 GrdErr=1.00D-06 EigMax=2.50D+02 EigMin=1.00D-04
 Number of steps in this run=    145 maximum allowed number of steps=    150.
 GradGradGradGradGradGradGradGradGradGradGradGradGradGradGradGradGradGrad

                          Input orientation:                          
 ---------------------------------------------------------------------
 Center     Atomic      Atomic             Coordinates (Angstroms)
 Number     Number       Type             X           Y           Z
 ---------------------------------------------------------------------
      1          6           0       -1.416679    0.678385   -0.786903
      2          6           0       -2.554058    0.675091   -1.619395
      3         17           0       -4.156261    0.755331   -0.946956
      4          6           0       -2.441852    0.628922   -2.989181
      5          1           0       -3.330447    0.635203   -3.612639
      6          6           0       -1.170548    0.573238   -3.606054
      7          6           0       -0.040794    0.586145   -2.756063
      8         16           0        1.588977    0.527514   -3.433158
      9          6           0       -0.160858    0.644271   -1.374451
     10          1           0        0.726515    0.666058   -0.747168
     11         16           0       -1.501733    0.710589    0.987963
     12          8           0       -2.377654   -0.368724    1.437694
     13          8           0       -0.121164    0.754365    1.463940
     14          7           0       -2.202964    2.115221    1.482957
     15          1           0       -3.193374    2.170056    1.241429
     16          1           0       -1.694459    2.938999    1.155125
     17          7           0       -1.064875    0.561963   -4.954747
     18          6           0        0.195736    0.288949   -5.611121
     19          7           0        1.233360    1.097910   -4.955886
     20          8           0        2.458970    1.501003   -2.773146
     21          8           0        2.063761   -0.861890   -3.454035
     22          1           0        0.134175    0.612855   -6.647638
     23          1           0        2.089054    1.153001   -5.516762
     24          1           0       -1.912980    0.440890   -5.497583
     25          1           0        0.435666   -0.781596   -5.582545
 ---------------------------------------------------------------------
                    Distance matrix (angstroms):
                    1          2          3          4          5
     1  C    0.000000
     2  C    1.409498   0.000000
     3  Cl   2.745332   1.739445   0.000000
     4  C    2.429702   1.375149   2.669431   0.000000
     5  H    3.413085   2.139484   2.793254   1.085514   0.000000
     6  C    2.831827   2.423074   4.002305   1.414159   2.160797
     7  C    2.403987   2.759786   4.498729   2.412727   3.399697
     8  S    4.007417   4.525070   6.264253   4.056474   4.923874
     9  C    1.386889   2.405900   4.019743   2.794730   3.880188
    10  H    2.143598   3.394558   4.887677   3.881565   4.966972
    11  S    1.777195   2.811933   3.285184   4.087562   4.951305
    12  O    2.639837   3.235190   3.180173   4.538351   5.236558
    13  O    2.598159   3.928386   4.700472   5.023108   6.007108
    14  N    2.799108   3.438288   3.401345   4.718704   5.424644
    15  H    3.081535   3.290586   2.778062   4.564859   5.092792
    16  H    2.993161   3.682683   3.904820   4.803158   5.542157
    17  N    4.184285   3.654454   5.065219   2.400833   2.634280
    18  C    5.101433   4.862546   6.396236   3.734571   4.067897
    19  N    4.957734   5.065125   6.725839   4.194647   4.779827
    20  O    4.431988   5.209964   6.903064   4.982495   5.913688
    21  O    4.647527   5.201199   6.898516   4.768559   5.600350
    22  H    6.062809   5.702078   7.136240   4.474425   4.606009
    23  H    5.906521   6.080820   7.748887   5.214637   5.767564
    24  H    4.742702   3.937788   5.083246   2.570437   2.366428
    25  H    5.344241   5.173679   6.703479   4.122525   4.480118
                    6          7          8          9         10
     6  C    0.000000
     7  C    1.413858   0.000000
     8  S    2.765314   1.765800   0.000000
     9  C    2.450422   1.388036   2.704409   0.000000
    10  H    3.432301   2.151931   2.824461   1.086918   0.000000
    11  S    4.607987   4.020890   5.397436   2.717231   2.824491
    12  O    5.271032   4.894924   6.345281   3.721357   3.934495
    13  O    5.180623   4.224119   5.192072   2.840803   2.369674
    14  N    5.416791   4.998233   6.408417   3.807712   3.956688
    15  H    5.489967   5.331741   6.886260   4.285674   4.645649
    16  H    5.342297   4.854680   6.135842   3.743857   3.827022
    17  N    1.352873   2.425600   3.059306   3.693581   4.574236
    18  C    2.442918   2.880214   2.596451   4.266472   4.907340
    19  N    2.806440   2.593183   1.664487   3.869924   4.261068
    20  O    3.837693   2.661969   1.462938   3.090928   2.793407
    21  O    3.541674   2.648231   1.468434   3.397370   3.383782
    22  H    3.309850   3.895598   3.529393   5.281527   5.930366
    23  H    3.822557   3.532569   2.232201   4.741272   4.984241
    24  H    2.036322   3.322968   4.066087   4.484586   5.439125
    25  H    2.884791   3.175962   2.768350   4.482967   5.055805
                   11         12         13         14         15
    11  S    0.000000
    12  O    1.460962   0.000000
    13  O    1.460973   2.520667   0.000000
    14  N    1.646128   2.490491   2.487204   0.000000
    15  H    2.248541   2.673822   3.390010   1.020908   0.000000
    16  H    2.242966   3.389340   2.709843   1.022086   1.686851
    17  N    5.960599   6.591878   6.490543   6.719515   6.746040
    18  C    6.826939   7.532639   7.097431   7.708111   7.872869
    19  N    6.554395   7.487877   6.570154   7.368985   7.691045
    20  O    5.518864   6.679819   5.016718   6.342342   6.965158
    21  O    5.909043   6.625586   5.618955   7.172310   7.673171
    22  H    7.809491   8.523225   8.116829   8.592199   8.702576
    23  H    7.443181   8.404260   7.333088   8.267004   8.637800
    24  H    6.504166   6.997818   7.195254   7.184387   7.074157
    25  H    7.010828   7.574232   7.233408   8.079309   8.273379
                   16         17         18         19         20
    16  H    0.000000
    17  N    6.586138   0.000000
    18  C    7.508508   1.447240   0.000000
    19  N    7.021837   2.359900   1.469836   0.000000
    20  O    5.894923   4.249549   3.826933   2.535539   0.000000
    21  O    7.057998   3.750714   3.076844   2.604983   2.490596
    22  H    8.344936   2.075137   1.087691   2.074973   4.604908
    23  H    7.875205   3.257677   2.083301   1.024612   2.790229
    24  H    7.109629   1.014205   2.117230   3.259535   5.259311
    25  H    7.986017   2.109717   1.097474   2.135781   4.146896
                   21         22         23         24         25
    21  O    0.000000
    22  H    4.012141   0.000000
    23  H    2.883621   2.322109   0.000000
    24  H    4.657016   2.354366   4.064942   0.000000
    25  H    2.680987   1.780397   2.545719   2.649119   0.000000
 Stoichiometry    C7H8ClN3O4S2
 Framework group  C1[X(C7H8ClN3O4S2)]
 Deg. of freedom    69
 Full point group                 C1      NOp   1
 Largest Abelian subgroup         C1      NOp   1
 Largest concise Abelian subgroup C1      NOp   1
                         Standard orientation:                         
 ---------------------------------------------------------------------
 Center     Atomic      Atomic             Coordinates (Angstroms)
 Number     Number       Type             X           Y           Z
 ---------------------------------------------------------------------
      1          6           0        1.215755   -0.098258    0.046222
      2          6           0        1.204328    1.310843    0.014792
      3         17           0        2.688224    2.218208   -0.005438
      4          6           0        0.026262    2.019288   -0.021289
      5          1           0        0.039655    3.104253   -0.053095
      6          6           0       -1.218242    1.347689   -0.018118
      7          6           0       -1.187655   -0.065652    0.004844
      8         16           0       -2.690211   -0.993215    0.002882
      9          6           0        0.005238   -0.774897    0.029786
     10          1           0       -0.002792   -1.861778    0.033816
     11         16           0        2.705488   -1.064543    0.119779
     12          8           0        3.521232   -0.589222    1.234697
     13          8           0        2.288387   -2.464320    0.086715
     14          7           0        3.593224   -0.817484   -1.244267
     15          1           0        3.978199    0.126370   -1.300739
     16          1           0        3.076456   -1.059282   -2.092291
     17          7           0       -2.373476    2.048302   -0.087703
     18          6           0       -3.655760    1.413663    0.130208
     19          7           0       -3.685295    0.169444   -0.651753
     20          8           0       -2.609011   -2.108046   -0.940911
     21          8           0       -3.060803   -1.333094    1.382535
     22          1           0       -4.441951    2.060033   -0.253434
     23          1           0       -4.635887   -0.199922   -0.750609
     24          1           0       -2.325399    3.056464    0.011854
     25          1           0       -3.831680    1.227998    1.197462
 ---------------------------------------------------------------------
 Rotational constants (GHZ):           0.6580662           0.2370032           0.1879560
 General basis read from cards:  (6D, 7F)
 There are   351 symmetry adapted cartesian basis functions of A   symmetry.
 There are   351 symmetry adapted basis functions of A   symmetry.
   351 basis functions,   648 primitive gaussians,   351 cartesian basis functions
    76 alpha electrons       76 beta electrons
       nuclear repulsion energy      1743.4309639353 Hartrees.
 NAtoms=   25 NActive=   25 NUniq=   25 SFac= 1.00D+00 NAtFMM=   60 NAOKFM=F Big=F
 Integral buffers will be    131072 words long.
 Raffenetti 2 integral format.
 Two-electron integral symmetry is turned on.
 One-electron integrals computed using PRISM.
 NBasis=   351 RedAO= T EigKep=  1.75D-06  NBF=   351
 NBsUse=   349 1.00D-06 EigRej=  8.14D-07 NBFU=   349
 ExpMin= 4.05D-02 ExpMax= 2.52D+04 ExpMxC= 3.78D+03 IAcc=3 IRadAn=         5 AccDes= 0.00D+00
 Harris functional with IExCor= 1009 and IRadAn=       5 diagonalized for initial guess.
 HarFok:  IExCor= 1009 AccDes= 0.00D+00 IRadAn=         5 IDoV= 1 UseB2=F ITyADJ=14
 ICtDFT=  3500011 ScaDFX=  1.000000  1.000000  1.000000  1.000000
 FoFCou: FMM=F IPFlag=           0 FMFlag=      100000 FMFlg1=           0
         NFxFlg=           0 DoJE=T BraDBF=F KetDBF=T FulRan=T
         wScrn=  0.000000 ICntrl=       500 IOpCl=  0 I1Cent=   200000004 NGrid=           0
         NMat0=    1 NMatS0=      1 NMatT0=    0 NMatD0=    1 NMtDS0=    0 NMtDT0=    0
 Petite list used in FoFCou.
 Requested convergence on RMS density matrix=1.00D-08 within 128 cycles.
 Requested convergence on MAX density matrix=1.00D-06.
 Requested convergence on             energy=1.00D-06.
 No special actions if energy rises.
 SCF Done:  E(RM062X) =  -1992.77054346     A.U. after   17 cycles
            NFock= 17  Conv=0.41D-08     -V/T= 2.0051

 **********************************************************************

            Population analysis using the SCF Density.

 **********************************************************************

 Orbital symmetries:
       Occupied  (A) (A) (A) (A) (A) (A) (A) (A) (A) (A) (A) (A)
                 (A) (A) (A) (A) (A) (A) (A) (A) (A) (A) (A) (A)
                 (A) (A) (A) (A) (A) (A) (A) (A) (A) (A) (A) (A)
                 (A) (A) (A) (A) (A) (A) (A) (A) (A) (A) (A) (A)
                 (A) (A) (A) (A) (A) (A) (A) (A) (A) (A) (A) (A)
                 (A) (A) (A) (A) (A) (A) (A) (A) (A) (A) (A) (A)
                 (A) (A) (A) (A)
       Virtual   (A) (A) (A) (A) (A) (A) (A) (A) (A) (A) (A) (A)
                 (A) (A) (A) (A) (A) (A) (A) (A) (A) (A) (A) (A)
                 (A) (A) (A) (A) (A) (A) (A) (A) (A) (A) (A) (A)
                 (A) (A) (A) (A) (A) (A) (A) (A) (A) (A) (A) (A)
                 (A) (A) (A) (A) (A) (A) (A) (A) (A) (A) (A) (A)
                 (A) (A) (A) (A) (A) (A) (A) (A) (A) (A) (A) (A)
                 (A) (A) (A) (A) (A) (A) (A) (A) (A) (A) (A) (A)
                 (A) (A) (A) (A) (A) (A) (A) (A) (A) (A) (A) (A)
                 (A) (A) (A) (A) (A) (A) (A) (A) (A) (A) (A) (A)
                 (A) (A) (A) (A) (A) (A) (A) (A) (A) (A) (A) (A)
                 (A) (A) (A) (A) (A) (A) (A) (A) (A) (A) (A) (A)
                 (A) (A) (A) (A) (A) (A) (A) (A) (A) (A) (A) (A)
                 (A) (A) (A) (A) (A) (A) (A) (A) (A) (A) (A) (A)
                 (A) (A) (A) (A) (A) (A) (A) (A) (A) (A) (A) (A)
                 (A) (A) (A) (A) (A) (A) (A) (A) (A) (A) (A) (A)
                 (A) (A) (A) (A) (A) (A) (A) (A) (A) (A) (A) (A)
                 (A) (A) (A) (A) (A) (A) (A) (A) (A) (A) (A) (A)
                 (A) (A) (A) (A) (A) (A) (A) (A) (A) (A) (A) (A)
                 (A) (A) (A) (A) (A) (A) (A) (A) (A) (A) (A) (A)
                 (A) (A) (A) (A) (A) (A) (A) (A) (A) (A) (A) (A)
                 (A) (A) (A) (A) (A) (A) (A) (A) (A) (A) (A) (A)
                 (A) (A) (A) (A) (A) (A) (A) (A) (A) (A) (A) (A)
                 (A) (A) (A) (A) (A) (A) (A) (A) (A)
 The electronic state is 1-A.
 Alpha  occ. eigenvalues -- -102.70964 -90.18323 -90.17687 -19.65671 -19.65583
 Alpha  occ. eigenvalues --  -19.64616 -19.64403 -14.84097 -14.83381 -14.81396
 Alpha  occ. eigenvalues --  -10.67454 -10.67189 -10.66891 -10.62167 -10.61932
 Alpha  occ. eigenvalues --  -10.61695 -10.60882  -9.85605  -8.49380  -8.48576
 Alpha  occ. eigenvalues --   -7.58017  -7.57347  -7.57304  -6.41604  -6.41498
 Alpha  occ. eigenvalues --   -6.41458  -6.40796  -6.40728  -6.40686  -1.25786
 Alpha  occ. eigenvalues --   -1.24861  -1.13923  -1.13293  -1.12915  -1.06397
 Alpha  occ. eigenvalues --   -1.04316  -1.03457  -0.98398  -0.91421  -0.89733
 Alpha  occ. eigenvalues --   -0.83485  -0.79107  -0.77817  -0.74213  -0.69930
 Alpha  occ. eigenvalues --   -0.67183  -0.66480  -0.63626  -0.62714  -0.61755
 Alpha  occ. eigenvalues --   -0.60644  -0.58384  -0.57583  -0.56807  -0.56506
 Alpha  occ. eigenvalues --   -0.55565  -0.53678  -0.52694  -0.52459  -0.51272
 Alpha  occ. eigenvalues --   -0.48350  -0.46540  -0.44266  -0.43066  -0.42814
 Alpha  occ. eigenvalues --   -0.41757  -0.41323  -0.40772  -0.40107  -0.39938
 Alpha  occ. eigenvalues --   -0.38965  -0.38309  -0.37759  -0.36887  -0.34534
 Alpha  occ. eigenvalues --   -0.30639
 Alpha virt. eigenvalues --   -0.04037  -0.02999  -0.02274  -0.00314   0.00072
 Alpha virt. eigenvalues --    0.01434   0.02035   0.02341   0.03145   0.04409
 Alpha virt. eigenvalues --    0.04924   0.05464   0.05662   0.06587   0.06736
 Alpha virt. eigenvalues --    0.07337   0.07859   0.08471   0.08917   0.09016
 Alpha virt. eigenvalues --    0.09433   0.09931   0.10132   0.10615   0.11123
 Alpha virt. eigenvalues --    0.11621   0.12131   0.12449   0.12762   0.12875
 Alpha virt. eigenvalues --    0.13240   0.13556   0.14409   0.14673   0.15623
 Alpha virt. eigenvalues --    0.16138   0.16787   0.17031   0.17084   0.17236
 Alpha virt. eigenvalues --    0.18026   0.18278   0.18702   0.19186   0.19779
 Alpha virt. eigenvalues --    0.20092   0.20623   0.21213   0.21556   0.22082
 Alpha virt. eigenvalues --    0.22254   0.22486   0.23269   0.23739   0.23812
 Alpha virt. eigenvalues --    0.24579   0.24719   0.25150   0.25443   0.26826
 Alpha virt. eigenvalues --    0.26914   0.27345   0.27482   0.27999   0.28937
 Alpha virt. eigenvalues --    0.29360   0.29844   0.30066   0.30518   0.31374
 Alpha virt. eigenvalues --    0.32034   0.32427   0.33034   0.33420   0.34333
 Alpha virt. eigenvalues --    0.34850   0.35292   0.35451   0.35602   0.36251
 Alpha virt. eigenvalues --    0.36630   0.37630   0.38013   0.38705   0.39042
 Alpha virt. eigenvalues --    0.40298   0.40786   0.41780   0.43075   0.43443
 Alpha virt. eigenvalues --    0.46019   0.48572   0.49279   0.51154   0.54371
 Alpha virt. eigenvalues --    0.56814   0.58053   0.58957   0.60701   0.63393
 Alpha virt. eigenvalues --    0.64032   0.64718   0.65336   0.67084   0.67394
 Alpha virt. eigenvalues --    0.68210   0.69199   0.69889   0.70649   0.72093
 Alpha virt. eigenvalues --    0.72235   0.73552   0.74709   0.75171   0.76780
 Alpha virt. eigenvalues --    0.77675   0.79310   0.80450   0.82554   0.84731
 Alpha virt. eigenvalues --    0.86526   0.87476   0.88865   0.90371   0.91421
 Alpha virt. eigenvalues --    0.92330   0.93095   0.94077   0.96488   0.96903
 Alpha virt. eigenvalues --    0.97090   1.00239   1.00349   1.02112   1.02278
 Alpha virt. eigenvalues --    1.03657   1.04282   1.04970   1.05931   1.07551
 Alpha virt. eigenvalues --    1.07635   1.08506   1.09310   1.09963   1.11152
 Alpha virt. eigenvalues --    1.12707   1.13342   1.14043   1.14873   1.15249
 Alpha virt. eigenvalues --    1.16025   1.17008   1.18133   1.18565   1.19833
 Alpha virt. eigenvalues --    1.21783   1.23017   1.25817   1.26410   1.29895
 Alpha virt. eigenvalues --    1.32383   1.33941   1.34332   1.35155   1.35800
 Alpha virt. eigenvalues --    1.37178   1.37918   1.38516   1.38834   1.39951
 Alpha virt. eigenvalues --    1.41012   1.41173   1.41741   1.43086   1.44356
 Alpha virt. eigenvalues --    1.46581   1.47546   1.48915   1.49564   1.50950
 Alpha virt. eigenvalues --    1.53591   1.53850   1.55740   1.56201   1.58611
 Alpha virt. eigenvalues --    1.60094   1.61717   1.66408   1.69842   1.72244
 Alpha virt. eigenvalues --    1.75756   1.76739   1.78635   1.79937   1.80183
 Alpha virt. eigenvalues --    1.82478   1.82932   1.84222   1.85788   1.87518
 Alpha virt. eigenvalues --    1.87869   1.88555   1.88854   1.90614   1.93274
 Alpha virt. eigenvalues --    1.94377   1.95625   1.96471   1.97299   1.98968
 Alpha virt. eigenvalues --    2.00356   2.01825   2.03036   2.06279   2.07039
 Alpha virt. eigenvalues --    2.09094   2.11713   2.12354   2.15691   2.16414
 Alpha virt. eigenvalues --    2.16848   2.18532   2.19244   2.20286   2.21401
 Alpha virt. eigenvalues --    2.22279   2.25045   2.26814   2.28446   2.29591
 Alpha virt. eigenvalues --    2.32361   2.36210   2.38718   2.40280   2.40925
 Alpha virt. eigenvalues --    2.44487   2.48466   2.49615   2.54808   2.55092
 Alpha virt. eigenvalues --    2.59990   2.61358   2.67026   2.68089   2.75410
 Alpha virt. eigenvalues --    2.76937   2.78041   2.80004   2.88972   2.90448
 Alpha virt. eigenvalues --    2.93527   2.94919   2.97921   3.01249   3.16729
 Alpha virt. eigenvalues --    3.30116   3.90337   4.01699   4.06223   4.08215
 Alpha virt. eigenvalues --    4.17578   4.22136   4.24312   4.27811   4.29482
 Alpha virt. eigenvalues --    4.32884   4.34935   4.39385   4.41509   4.44637
 Alpha virt. eigenvalues --    4.48247   4.51821   4.70945
          Condensed to atoms (all electrons):
               1          2          3          4          5          6
     1  C   51.834577 -12.109187   0.447613  -4.950062   0.044409  -0.456382
     2  C  -12.109187  40.342969  -1.278148  -8.612256   0.044516   0.461563
     3  Cl   0.447613  -1.278148  17.104055   0.342323  -0.007767  -0.105900
     4  C   -4.950062  -8.612256   0.342323  31.358845   0.228149  -8.038923
     5  H    0.044409   0.044516  -0.007767   0.228149   0.464652  -0.091548
     6  C   -0.456382   0.461563  -0.105900  -8.038923  -0.091548  37.642170
     7  C   -9.973157   0.762664  -0.043112 -12.464569   0.091883 -16.694330
     8  S   -4.688500   0.575648  -0.009878   1.745140   0.002120  -1.505057
     9  C   -8.489097 -14.924141   0.376976   7.624756  -0.011020  -6.581923
    10  H   -0.104002   0.006704  -0.000215  -0.008789   0.000010  -0.024604
    11  S   -0.840238  -0.911379  -0.004028   1.134915  -0.000089   1.363158
    12  O   -0.348459   0.362291  -0.106233   0.055631   0.000011   0.225646
    13  O   -0.710595  -0.338947   0.006531   0.089766   0.000025  -0.002463
    14  N   -0.513343  -0.247304   0.015252   0.044187  -0.000224  -0.053953
    15  H   -0.044565  -0.011465   0.016387   0.015450   0.000001   0.010874
    16  H   -0.062272   0.072057  -0.004621  -0.003679   0.000000   0.010198
    17  N    0.074803   0.208833  -0.003916  -0.542595  -0.009632  -0.970840
    18  C    0.271303   0.057517  -0.004278  -1.305626   0.006097  -0.667332
    19  N   -0.615643   0.198385  -0.000542   0.667547   0.000337   1.153711
    20  O   -0.119508  -0.027284  -0.000215   0.111393   0.000013   0.033380
    21  O   -0.184568   0.058196  -0.000666  -0.023852   0.000012  -0.364439
    22  H    0.004471  -0.005656   0.000031   0.022886   0.000004   0.063362
    23  H    0.010717  -0.002544   0.000007  -0.013861  -0.000000  -0.080362
    24  H    0.005941   0.028316  -0.000514  -0.086241   0.005199  -0.058937
    25  H   -0.010204   0.023146  -0.000104  -0.051588  -0.000002  -0.220452
               7          8          9         10         11         12
     1  C   -9.973157  -4.688500  -8.489097  -0.104002  -0.840238  -0.348459
     2  C    0.762664   0.575648 -14.924141   0.006704  -0.911379   0.362291
     3  Cl  -0.043112  -0.009878   0.376976  -0.000215  -0.004028  -0.106233
     4  C  -12.464569   1.745140   7.624756  -0.008789   1.134915   0.055631
     5  H    0.091883   0.002120  -0.011020   0.000010  -0.000089   0.000011
     6  C  -16.694330  -1.505057  -6.581923  -0.024604   1.363158   0.225646
     7  C   43.726169  -1.539663   4.238476   0.027880  -3.524239  -0.361831
     8  S   -1.539663  19.458843   0.310801   0.041042  -0.501626  -0.025164
     9  C    4.238476   0.310801  23.887267   0.381691  -0.815646  -0.476385
    10  H    0.027880   0.041042   0.381691   0.382349  -0.025512  -0.000830
    11  S   -3.524239  -0.501626  -0.815646  -0.025512  17.883676   0.681119
    12  O   -0.361831  -0.025164  -0.476385  -0.000830   0.681119   8.691878
    13  O   -0.071290  -0.008630   0.542855   0.001496   0.496877  -0.140167
    14  N    0.310297   0.024521   0.512516   0.000417  -0.531363  -0.150069
    15  H   -0.019436  -0.000674  -0.021825  -0.000012   0.074780  -0.001406
    16  H   -0.044367  -0.002055  -0.084060  -0.000042   0.132430   0.012114
    17  N    1.313517  -0.117251  -0.104232  -0.000597  -0.008936  -0.000302
    18  C    1.858298  -0.844728  -0.096162  -0.000397  -0.004818   0.000578
    19  N   -1.721946   0.238276   0.033801   0.001920  -0.021478  -0.000335
    20  O   -0.285838   0.234367   0.191211   0.004019  -0.010061  -0.000266
    21  O    0.081073   0.860778  -0.129056   0.000065  -0.015851  -0.000243
    22  H   -0.034673  -0.014702   0.002587  -0.000000   0.000072   0.000000
    23  H    0.155665  -0.044988   0.007952  -0.000001   0.000121   0.000000
    24  H    0.094956   0.005624  -0.007295   0.000002  -0.000118   0.000001
    25  H    0.121966   0.036827   0.003880   0.000001  -0.000592  -0.000001
              13         14         15         16         17         18
     1  C   -0.710595  -0.513343  -0.044565  -0.062272   0.074803   0.271303
     2  C   -0.338947  -0.247304  -0.011465   0.072057   0.208833   0.057517
     3  Cl   0.006531   0.015252   0.016387  -0.004621  -0.003916  -0.004278
     4  C    0.089766   0.044187   0.015450  -0.003679  -0.542595  -1.305626
     5  H    0.000025  -0.000224   0.000001   0.000000  -0.009632   0.006097
     6  C   -0.002463  -0.053953   0.010874   0.010198  -0.970840  -0.667332
     7  C   -0.071290   0.310297  -0.019436  -0.044367   1.313517   1.858298
     8  S   -0.008630   0.024521  -0.000674  -0.002055  -0.117251  -0.844728
     9  C    0.542855   0.512516  -0.021825  -0.084060  -0.104232  -0.096162
    10  H    0.001496   0.000417  -0.000012  -0.000042  -0.000597  -0.000397
    11  S    0.496877  -0.531363   0.074780   0.132430  -0.008936  -0.004818
    12  O   -0.140167  -0.150069  -0.001406   0.012114  -0.000302   0.000578
    13  O    8.787034  -0.097519   0.012395  -0.005493   0.000219  -0.000515
    14  N   -0.097519   8.123586   0.228450   0.242961  -0.000232  -0.001167
    15  H    0.012395   0.228450   0.316094  -0.022068  -0.000002   0.000013
    16  H   -0.005493   0.242961  -0.022068   0.312397  -0.000003  -0.000003
    17  N    0.000219  -0.000232  -0.000002  -0.000003   7.516265   0.298339
    18  C   -0.000515  -0.001167   0.000013  -0.000003   0.298339   6.191096
    19  N   -0.000704   0.000183  -0.000004  -0.000014  -0.318730  -0.320356
    20  O   -0.000383   0.000063  -0.000002  -0.000004  -0.020772   0.057068
    21  O   -0.000120   0.000184  -0.000000  -0.000001   0.053963  -0.077960
    22  H    0.000000   0.000000   0.000000   0.000000  -0.051352   0.367693
    23  H    0.000000   0.000000   0.000000   0.000000   0.021351  -0.019264
    24  H    0.000000   0.000003   0.000000   0.000000   0.287304  -0.035075
    25  H   -0.000001  -0.000001  -0.000000  -0.000000  -0.032775   0.497703
              19         20         21         22         23         24
     1  C   -0.615643  -0.119508  -0.184568   0.004471   0.010717   0.005941
     2  C    0.198385  -0.027284   0.058196  -0.005656  -0.002544   0.028316
     3  Cl  -0.000542  -0.000215  -0.000666   0.000031   0.000007  -0.000514
     4  C    0.667547   0.111393  -0.023852   0.022886  -0.013861  -0.086241
     5  H    0.000337   0.000013   0.000012   0.000004  -0.000000   0.005199
     6  C    1.153711   0.033380  -0.364439   0.063362  -0.080362  -0.058937
     7  C   -1.721946  -0.285838   0.081073  -0.034673   0.155665   0.094956
     8  S    0.238276   0.234367   0.860778  -0.014702  -0.044988   0.005624
     9  C    0.033801   0.191211  -0.129056   0.002587   0.007952  -0.007295
    10  H    0.001920   0.004019   0.000065  -0.000000  -0.000001   0.000002
    11  S   -0.021478  -0.010061  -0.015851   0.000072   0.000121  -0.000118
    12  O   -0.000335  -0.000266  -0.000243   0.000000   0.000000   0.000001
    13  O   -0.000704  -0.000383  -0.000120   0.000000   0.000000   0.000000
    14  N    0.000183   0.000063   0.000184   0.000000   0.000000   0.000003
    15  H   -0.000004  -0.000002  -0.000000   0.000000   0.000000   0.000000
    16  H   -0.000014  -0.000004  -0.000001   0.000000   0.000000   0.000000
    17  N   -0.318730  -0.020772   0.053963  -0.051352   0.021351   0.287304
    18  C   -0.320356   0.057068  -0.077960   0.367693  -0.019264  -0.035075
    19  N    8.632459  -0.081536  -0.214821  -0.016073   0.227652   0.007435
    20  O   -0.081536   8.622339  -0.189520  -0.000246  -0.007932   0.000042
    21  O   -0.214821  -0.189520   8.556422  -0.001157  -0.006373   0.000268
    22  H   -0.016073  -0.000246  -0.001157   0.474314  -0.005581  -0.003531
    23  H    0.227652  -0.007932  -0.006373  -0.005581   0.276305  -0.000015
    24  H    0.007435   0.000042   0.000268  -0.003531  -0.000015   0.306161
    25  H   -0.104480   0.000624   0.014232  -0.036415   0.002101   0.002275
              25
     1  C   -0.010204
     2  C    0.023146
     3  Cl  -0.000104
     4  C   -0.051588
     5  H   -0.000002
     6  C   -0.220452
     7  C    0.121966
     8  S    0.036827
     9  C    0.003880
    10  H    0.000001
    11  S   -0.000592
    12  O   -0.000001
    13  O   -0.000001
    14  N   -0.000001
    15  H   -0.000000
    16  H   -0.000000
    17  N   -0.032775
    18  C    0.497703
    19  N   -0.104480
    20  O    0.000624
    21  O    0.014232
    22  H   -0.036415
    23  H    0.002101
    24  H    0.002275
    25  H    0.486747
 Mulliken charges:
               1
     1  C   -2.474053
     2  C    1.265505
     3  Cl   0.260961
     4  C   -1.338949
     5  H    0.232844
     6  C    0.953383
     7  C   -0.004392
     8  S    1.768930
     9  C   -0.373927
    10  H    0.317405
    11  S    1.448827
    12  O   -0.417578
    13  O   -0.560373
    14  N   -0.907444
    15  H    0.447014
    16  H    0.446524
    17  N   -0.592425
    18  C   -0.228023
    19  N   -0.745042
    20  O   -0.510954
    21  O   -0.416565
    22  H    0.233969
    23  H    0.479053
    24  H    0.448198
    25  H    0.267113
 Sum of Mulliken charges =  -0.00000
 Mulliken charges with hydrogens summed into heavy atoms:
               1
     1  C   -2.474053
     2  C    1.265505
     3  Cl   0.260961
     4  C   -1.106105
     6  C    0.953383
     7  C   -0.004392
     8  S    1.768930
     9  C   -0.056522
    11  S    1.448827
    12  O   -0.417578
    13  O   -0.560373
    14  N   -0.013906
    17  N   -0.144227
    18  C    0.273060
    19  N   -0.265989
    20  O   -0.510954
    21  O   -0.416565
 Electronic spatial extent (au):  <R**2>=           5457.9031
 Charge=              0.0000 electrons
 Dipole moment (field-independent basis, Debye):
    X=             -4.9600    Y=              9.5602    Z=             -3.6561  Tot=             11.3740
 Quadrupole moment (field-independent basis, Debye-Ang):
   XX=           -111.7974   YY=           -122.1685   ZZ=           -125.5580
   XY=            -10.2378   XZ=            -10.9372   YZ=              3.0002
 Traceless Quadrupole moment (field-independent basis, Debye-Ang):
   XX=              8.0439   YY=             -2.3272   ZZ=             -5.7167
   XY=            -10.2378   XZ=            -10.9372   YZ=              3.0002
 Octapole moment (field-independent basis, Debye-Ang**2):
  XXX=           -144.2147  YYY=             69.9400  ZZZ=            -14.1152  XYY=            -25.3189
  XXY=             90.0495  XXZ=            -57.1331  XZZ=             26.1734  YZZ=             -1.6104
  YYZ=              4.5305  XYZ=             -2.0597
 Hexadecapole moment (field-independent basis, Debye-Ang**3):
 XXXX=          -4431.0329 YYYY=          -1633.4655 ZZZZ=           -366.6169 XXXY=            -28.9369
 XXXZ=            -53.8540 YYYX=            -60.2077 YYYZ=             -6.0457 ZZZX=            -43.7929
 ZZZY=             18.8878 XXYY=          -1125.3384 XXZZ=           -928.9184 YYZZ=           -363.0653
 XXYZ=             25.8777 YYXZ=             -9.3580 ZZXY=            -19.9650
 N-N= 1.743430963935D+03 E-N=-8.186999473888D+03  KE= 1.982606986702D+03
 Calling FoFJK, ICntrl=      2127 FMM=F ISym2X=0 I1Cent= 0 IOpClX= 0 NMat=1 NMatS=1 NMatT=0.
 ***** Axes restored to original set *****
 -------------------------------------------------------------------
 Center     Atomic                   Forces (Hartrees/Bohr)
 Number     Number              X              Y              Z
 -------------------------------------------------------------------
      1        6          -0.004508971    0.003124940   -0.005572773
      2        6           0.000681934    0.000013597    0.006662108
      3       17           0.000613858    0.000087553   -0.000601756
      4        6           0.004601989   -0.000503693   -0.006679716
      5        1          -0.001025800    0.000159487    0.001255175
      6        6          -0.002063376    0.000525530    0.017295977
      7        6          -0.004879591    0.000904690   -0.006103188
      8       16           0.028742611   -0.007468646    0.023714849
      9        6          -0.000201379   -0.000227486   -0.001239689
     10        1           0.000207363    0.000250191    0.000726960
     11       16           0.010577610   -0.028203006    0.024526307
     12        8           0.002823578    0.012088101   -0.009062528
     13        8          -0.008750276    0.005357979   -0.009496797
     14        7          -0.005132318    0.012177966   -0.006109032
     15        1           0.001957341   -0.001576519    0.001374181
     16        1          -0.000377000   -0.002445002    0.002954002
     17        7          -0.001530819   -0.000743184   -0.013117781
     18        6           0.002372433    0.001870207    0.000669015
     19        7          -0.004684547   -0.000994188   -0.012484833
     20        8          -0.011092650   -0.004363329   -0.007942979
     21        8          -0.009860060    0.009350743   -0.006160176
     22        1          -0.001083234    0.000965503   -0.001643324
     23        1          -0.001522093    0.001078706    0.004041232
     24        1           0.003081631    0.000515942    0.001908266
     25        1           0.001051764   -0.001946081    0.001086501
 -------------------------------------------------------------------
 Cartesian Forces:  Max     0.028742611 RMS     0.008163623

 GradGradGradGradGradGradGradGradGradGradGradGradGradGradGradGradGradGrad
 Berny optimization.
 FormGI is forming the generalized inverse of G from B-inverse, IUseBI=4.
 Internal  Forces:  Max     0.013412562 RMS     0.003290892
 Search for a local minimum.
 Step number   1 out of a maximum of  145
 All quantities printed in internal units (Hartrees-Bohrs-Radians)
 Mixed Optimization -- RFO/linear search
 Second derivative matrix not updated -- first step.
 ITU=  0
     Eigenvalues ---    0.00672   0.01299   0.01476   0.01531   0.01702
     Eigenvalues ---    0.01722   0.01908   0.02009   0.02052   0.02125
     Eigenvalues ---    0.02153   0.02198   0.02252   0.02255   0.03013
     Eigenvalues ---    0.04399   0.05564   0.07105   0.07658   0.09261
     Eigenvalues ---    0.09338   0.09856   0.10437   0.11522   0.11718
     Eigenvalues ---    0.12121   0.13404   0.14504   0.15146   0.16000
     Eigenvalues ---    0.16000   0.16000   0.16000   0.19467   0.19987
     Eigenvalues ---    0.20217   0.23110   0.23949   0.24660   0.24989
     Eigenvalues ---    0.24996   0.24999   0.25000   0.27999   0.28520
     Eigenvalues ---    0.31533   0.33880   0.33963   0.35081   0.35171
     Eigenvalues ---    0.35336   0.37291   0.38268   0.40237   0.41591
     Eigenvalues ---    0.43241   0.43475   0.43610   0.44007   0.44193
     Eigenvalues ---    0.45276   0.45665   0.47351   0.49296   0.52736
     Eigenvalues ---    0.88158   0.90387   0.91202   0.91207
 RFO step:  Lambda=-5.50522388D-03 EMin= 6.71964352D-03
 Linear search not attempted -- first point.
 Iteration  1 RMS(Cart)=  0.02019179 RMS(Int)=  0.00054034
 Iteration  2 RMS(Cart)=  0.00069036 RMS(Int)=  0.00018093
 Iteration  3 RMS(Cart)=  0.00000022 RMS(Int)=  0.00018093
 Variable       Old X    -DE/DX   Delta X   Delta X   Delta X     New X
                                 (Linear)    (Quad)   (Total)
    R1        2.66356  -0.00374   0.00000  -0.00819  -0.00818   2.65538
    R2        2.62084   0.00089   0.00000   0.00191   0.00192   2.62276
    R3        3.35841   0.00408   0.00000   0.01430   0.01430   3.37271
    R4        3.28707  -0.00079   0.00000  -0.00248  -0.00248   3.28460
    R5        2.59866   0.00382   0.00000   0.00765   0.00764   2.60630
    R6        2.05132   0.00012   0.00000   0.00033   0.00033   2.05166
    R7        2.67237  -0.00254   0.00000  -0.00585  -0.00586   2.66652
    R8        2.67180  -0.00380   0.00000  -0.00874  -0.00876   2.66305
    R9        2.55656   0.01152   0.00000   0.02069   0.02063   2.57719
   R10        3.33688   0.00294   0.00000   0.01056   0.01061   3.34749
   R11        2.62301   0.00053   0.00000   0.00100   0.00100   2.62401
   R12        3.14542   0.00865   0.00000   0.02157   0.02162   3.16705
   R13        2.76455  -0.01308   0.00000  -0.01439  -0.01439   2.75017
   R14        2.77494  -0.01195   0.00000  -0.01347  -0.01347   2.76147
   R15        2.05398   0.00059   0.00000   0.00166   0.00166   2.05564
   R16        2.76082  -0.01341   0.00000  -0.01462  -0.01462   2.74620
   R17        2.76084  -0.01120   0.00000  -0.01221  -0.01221   2.74863
   R18        3.11073   0.00793   0.00000   0.01812   0.01812   3.12885
   R19        1.92924  -0.00231   0.00000  -0.00516  -0.00516   1.92408
   R20        1.93146  -0.00311   0.00000  -0.00697  -0.00697   1.92449
   R21        2.73489   0.00026   0.00000   0.00032   0.00027   2.73516
   R22        1.91657  -0.00366   0.00000  -0.00799  -0.00799   1.90858
   R23        2.77759  -0.00220   0.00000  -0.00669  -0.00669   2.77089
   R24        2.05544   0.00192   0.00000   0.00538   0.00538   2.06081
   R25        2.07393   0.00216   0.00000   0.00624   0.00624   2.08017
   R26        1.93624  -0.00343   0.00000  -0.00776  -0.00776   1.92848
    A1        2.07191  -0.00040   0.00000  -0.00116  -0.00117   2.07074
    A2        2.15469   0.00124   0.00000   0.00460   0.00457   2.15926
    A3        2.05654  -0.00084   0.00000  -0.00354  -0.00357   2.05297
    A4        2.11161   0.00106   0.00000   0.00392   0.00392   2.11553
    A5        2.12065  -0.00110   0.00000  -0.00383  -0.00382   2.11682
    A6        2.05080   0.00004   0.00000  -0.00010  -0.00010   2.05070
    A7        2.10031  -0.00185   0.00000  -0.01090  -0.01090   2.08941
    A8        2.10504   0.00037   0.00000   0.00170   0.00169   2.10672
    A9        2.07784   0.00148   0.00000   0.00920   0.00921   2.08705
   A10        2.04399   0.00114   0.00000   0.00407   0.00410   2.04809
   A11        2.10066   0.00038   0.00000   0.00182   0.00186   2.10251
   A12        2.13766  -0.00151   0.00000  -0.00576  -0.00583   2.13183
   A13        2.10212   0.00234   0.00000   0.01070   0.01074   2.11286
   A14        2.12900  -0.00117   0.00000  -0.00576  -0.00579   2.12322
   A15        2.05206  -0.00117   0.00000  -0.00494  -0.00497   2.04709
   A16        1.71350  -0.00165   0.00000  -0.02113  -0.02133   1.69218
   A17        1.93241  -0.00094   0.00000  -0.00041  -0.00076   1.93165
   A18        1.91271   0.00019   0.00000  -0.00223  -0.00315   1.90956
   A19        1.88783  -0.00119   0.00000  -0.01078  -0.01082   1.87701
   A20        1.96093  -0.00477   0.00000  -0.03594  -0.03626   1.92467
   A21        2.03058   0.00684   0.00000   0.05687   0.05682   2.08740
   A22        2.09559   0.00115   0.00000   0.00499   0.00501   2.10060
   A23        2.08779  -0.00107   0.00000  -0.00549  -0.00550   2.08230
   A24        2.09980  -0.00008   0.00000   0.00050   0.00049   2.10029
   A25        1.89941  -0.00143   0.00000  -0.01299  -0.01337   1.88604
   A26        1.85531  -0.00267   0.00000  -0.01958  -0.01997   1.83534
   A27        1.91363  -0.00585   0.00000  -0.04154  -0.04222   1.87141
   A28        2.08105   0.00698   0.00000   0.06570   0.06567   2.14672
   A29        1.85711   0.00080   0.00000  -0.00041  -0.00118   1.85593
   A30        1.85356   0.00118   0.00000   0.00106   0.00016   1.85372
   A31        1.96921  -0.00109   0.00000  -0.00082  -0.00093   1.96828
   A32        1.95989   0.00103   0.00000   0.01206   0.01195   1.97184
   A33        1.94280   0.00121   0.00000   0.01685   0.01668   1.95948
   A34        2.11969   0.00007   0.00000   0.00097   0.00089   2.12058
   A35        2.05925  -0.00013   0.00000   0.00136   0.00139   2.06063
   A36        2.05231   0.00007   0.00000   0.00123   0.00125   2.05356
   A37        1.88484  -0.00050   0.00000  -0.00687  -0.00705   1.87778
   A38        1.90363  -0.00057   0.00000  -0.00624  -0.00624   1.89739
   A39        1.94189   0.00039   0.00000   0.00355   0.00362   1.94551
   A40        1.87640   0.00062   0.00000   0.00733   0.00740   1.88381
   A41        1.95081  -0.00047   0.00000  -0.00622  -0.00622   1.94459
   A42        1.90463   0.00052   0.00000   0.00836   0.00836   1.91299
   A43        1.94985   0.00108   0.00000   0.00135   0.00126   1.95111
   A44        1.91854  -0.00181   0.00000  -0.01754  -0.01755   1.90100
   A45        1.95533   0.00100   0.00000   0.01067   0.01073   1.96606
    D1       -3.11568   0.00002   0.00000   0.00036   0.00036  -3.11533
    D2        0.00862   0.00002   0.00000  -0.00015  -0.00015   0.00847
    D3        0.03506   0.00030   0.00000   0.01340   0.01342   0.04849
    D4       -3.12381   0.00029   0.00000   0.01290   0.01292  -3.11090
    D5       -0.01802  -0.00001   0.00000   0.00106   0.00105  -0.01697
    D6        3.12067  -0.00001   0.00000   0.00095   0.00094   3.12162
    D7        3.11494  -0.00026   0.00000  -0.01121  -0.01118   3.10376
    D8       -0.02956  -0.00026   0.00000  -0.01131  -0.01128  -0.04084
    D9        0.91485  -0.00307   0.00000  -0.03132  -0.03102   0.88383
   D10       -3.10649   0.00285   0.00000   0.02859   0.02820  -3.07829
   D11       -1.10991   0.00001   0.00000  -0.00051  -0.00045  -1.11036
   D12       -2.21766  -0.00280   0.00000  -0.01840  -0.01808  -2.23575
   D13        0.04418   0.00313   0.00000   0.04151   0.04113   0.08531
   D14        2.04076   0.00028   0.00000   0.01241   0.01249   2.05325
   D15       -3.13307  -0.00002   0.00000   0.00064   0.00065  -3.13242
   D16        0.00806  -0.00004   0.00000  -0.00042  -0.00041   0.00765
   D17       -0.00818  -0.00001   0.00000   0.00019   0.00019  -0.00799
   D18        3.13294  -0.00004   0.00000  -0.00087  -0.00086   3.13208
   D19       -0.01472   0.00003   0.00000  -0.00005  -0.00004  -0.01476
   D20       -3.11245  -0.00015   0.00000  -0.00325  -0.00322  -3.11567
   D21        3.12641  -0.00000   0.00000  -0.00110  -0.00111   3.12531
   D22        0.02868  -0.00018   0.00000  -0.00430  -0.00428   0.02440
   D23       -3.13655  -0.00011   0.00000  -0.00567  -0.00573   3.14090
   D24        0.00525  -0.00001   0.00000   0.00101   0.00099   0.00624
   D25       -0.03983   0.00013   0.00000  -0.00218  -0.00229  -0.04211
   D26        3.10198   0.00022   0.00000   0.00450   0.00443   3.10641
   D27       -2.96460  -0.00027   0.00000  -0.01226  -0.01235  -2.97695
   D28       -0.17190  -0.00020   0.00000  -0.00045  -0.00046  -0.17236
   D29        0.22327  -0.00053   0.00000  -0.01591  -0.01595   0.20732
   D30        3.01597  -0.00046   0.00000  -0.00409  -0.00406   3.01191
   D31        0.38894  -0.00084   0.00000   0.01645   0.01642   0.40537
   D32        2.36154  -0.00324   0.00000  -0.00569  -0.00571   2.35584
   D33       -1.65868   0.00521   0.00000   0.06737   0.06737  -1.59131
   D34       -2.75285  -0.00093   0.00000   0.01005   0.00998  -2.74287
   D35       -0.78025  -0.00334   0.00000  -0.01208  -0.01214  -0.79239
   D36        1.48271   0.00511   0.00000   0.06098   0.06094   1.54365
   D37        0.01122   0.00001   0.00000  -0.00154  -0.00151   0.00971
   D38       -3.12745   0.00001   0.00000  -0.00142  -0.00140  -3.12885
   D39       -3.13017   0.00010   0.00000   0.00496   0.00497  -3.12520
   D40        0.01434   0.00010   0.00000   0.00508   0.00508   0.01942
   D41       -0.97638  -0.00049   0.00000  -0.02702  -0.02716  -1.00355
   D42        3.12477  -0.00123   0.00000  -0.02884  -0.02900   3.09577
   D43       -2.98428   0.00162   0.00000  -0.01414  -0.01428  -2.99856
   D44        1.11687   0.00089   0.00000  -0.01596  -0.01612   1.10075
   D45        1.03375  -0.00282   0.00000  -0.05324  -0.05284   0.98091
   D46       -1.14829  -0.00356   0.00000  -0.05506  -0.05468  -1.20297
   D47        1.19413   0.00089   0.00000   0.00776   0.00782   1.20195
   D48       -1.01867  -0.00071   0.00000  -0.02459  -0.02461  -1.04328
   D49       -0.85725   0.00516   0.00000   0.04485   0.04487  -0.81238
   D50       -3.07005   0.00356   0.00000   0.01251   0.01244  -3.05761
   D51       -3.09135  -0.00442   0.00000  -0.03452  -0.03447  -3.12582
   D52        0.97904  -0.00602   0.00000  -0.06687  -0.06690   0.91213
   D53       -0.81749   0.00004   0.00000   0.01135   0.01146  -0.80603
   D54       -2.85169  -0.00011   0.00000   0.00977   0.00985  -2.84184
   D55        1.32954  -0.00064   0.00000   0.00122   0.00127   1.33081
   D56        2.67166   0.00001   0.00000  -0.00045  -0.00040   2.67126
   D57        0.63747  -0.00014   0.00000  -0.00202  -0.00202   0.63545
   D58       -1.46449  -0.00067   0.00000  -0.01058  -0.01060  -1.47509
   D59        1.25017   0.00044   0.00000   0.01889   0.01903   1.26919
   D60       -2.87156  -0.00037   0.00000   0.00487   0.00493  -2.86663
   D61       -2.98121  -0.00016   0.00000   0.01183   0.01189  -2.96932
   D62       -0.81975  -0.00098   0.00000  -0.00218  -0.00221  -0.82196
   D63       -0.89142   0.00060   0.00000   0.02312   0.02320  -0.86822
   D64        1.27003  -0.00022   0.00000   0.00910   0.00911   1.27914
         Item               Value     Threshold  Converged?
 Maximum Force            0.013413     0.000450     NO 
 RMS     Force            0.003291     0.000300     NO 
 Maximum Displacement     0.112684     0.001800     NO 
 RMS     Displacement     0.020363     0.001200     NO 
 Predicted change in Energy=-2.870696D-03
 GradGradGradGradGradGradGradGradGradGradGradGradGradGradGradGradGradGrad

                          Input orientation:                          
 ---------------------------------------------------------------------
 Center     Atomic      Atomic             Coordinates (Angstroms)
 Number     Number       Type             X           Y           Z
 ---------------------------------------------------------------------
      1          6           0       -1.417376    0.679707   -0.778042
      2          6           0       -2.553304    0.677160   -1.605181
      3         17           0       -4.155125    0.761621   -0.935745
      4          6           0       -2.438971    0.628549   -2.978768
      5          1           0       -3.333578    0.636416   -3.593861
      6          6           0       -1.170733    0.570476   -3.594632
      7          6           0       -0.040919    0.583008   -2.752447
      8         16           0        1.598024    0.512792   -3.420907
      9          6           0       -0.162843    0.642331   -1.370517
     10          1           0        0.724105    0.662839   -0.741067
     11         16           0       -1.490351    0.695544    1.005158
     12          8           0       -2.388622   -0.365360    1.428785
     13          8           0       -0.105619    0.782480    1.441697
     14          7           0       -2.206705    2.119222    1.453900
     15          1           0       -3.193538    2.159063    1.206394
     16          1           0       -1.695187    2.939742    1.134172
     17          7           0       -1.062317    0.553010   -4.953996
     18          6           0        0.202009    0.292281   -5.608533
     19          7           0        1.222408    1.107531   -4.942070
     20          8           0        2.460768    1.487204   -2.769628
     21          8           0        2.025326   -0.881561   -3.513665
     22          1           0        0.133533    0.621968   -6.645782
     23          1           0        2.081042    1.185879   -5.488003
     24          1           0       -1.905314    0.429516   -5.496365
     25          1           0        0.458806   -0.777667   -5.577218
 ---------------------------------------------------------------------
                    Distance matrix (angstroms):
                    1          2          3          4          5
     1  C    0.000000
     2  C    1.405168   0.000000
     3  Cl   2.743511   1.738135   0.000000
     4  C    2.426823   1.379194   2.671486   0.000000
     5  H    3.406251   2.136665   2.784995   1.085690   0.000000
     6  C    2.829478   2.425036   4.001602   1.411059   2.163850
     7  C    2.408788   2.763541   4.501000   2.409138   3.398887
     8  S    4.013132   4.534026   6.271895   4.062784   4.936182
     9  C    1.387904   2.402203   4.017658   2.787009   3.872577
    10  H    2.141866   3.389440   4.884111   3.874730   4.960234
    11  S    1.784763   2.818524   3.297346   4.095856   4.954993
    12  O    2.627845   3.212307   3.159370   4.518508   5.208020
    13  O    2.580408   3.909695   4.695867   5.000873   5.983134
    14  N    2.770705   3.399655   3.368950   4.682371   5.380377
    15  H    3.046511   3.242050   2.732444   4.519671   5.037908
    16  H    2.973465   3.655092   3.883305   4.776097   5.508533
    17  N    4.192936   3.667835   5.074971   2.408819   2.648688
    18  C    5.109418   4.875111   6.406235   3.742127   4.083835
    19  N    4.948800   5.057276   6.714772   4.182066   4.774581
    20  O    4.433787   5.210856   6.903596   4.978802   5.914190
    21  O    4.666197   5.199594   6.895195   4.743048   5.570327
    22  H    6.069517   5.712250   7.142593   4.479377   4.619014
    23  H    5.888877   6.067311   7.732583   5.199750   5.762621
    24  H    4.750080   3.952535   5.096195   2.581221   2.387942
    25  H    5.355006   5.192918   6.723172   4.138417   4.507273
                    6          7          8          9         10
     6  C    0.000000
     7  C    1.409224   0.000000
     8  S    2.774802   1.771413   0.000000
     9  C    2.442886   1.388565   2.705832   0.000000
    10  H    3.426628   2.153435   2.822728   1.087798   0.000000
    11  S    4.612578   4.029034   5.400140   2.721938   2.820317
    12  O    5.252977   4.888129   6.339086   3.715593   3.931224
    13  O    5.152089   4.199382   5.159462   2.816286   2.338207
    14  N    5.381406   4.974327   6.389078   3.786280   3.940631
    15  H    5.446577   5.300507   6.861573   4.257471   4.623766
    16  H    5.315079   4.837003   6.122423   3.728223   3.814942
    17  N    1.363792   2.427133   3.070732   3.695721   4.577350
    18  C    2.453081   2.881105   2.604456   4.268071   4.909391
    19  N    2.798417   2.581777   1.675930   3.858927   4.253761
    20  O    3.835209   2.660132   1.455325   3.091061   2.794752
    21  O    3.511377   2.644578   1.461305   3.421026   3.430110
    22  H    3.318626   3.897437   3.543511   5.283623   5.934316
    23  H    3.812823   3.514177   2.226935   4.720609   4.964700
    24  H    2.043542   3.320936   4.072817   4.483761   5.438855
    25  H    2.898885   3.174980   2.759127   4.483210   5.053098
                   11         12         13         14         15
    11  S    0.000000
    12  O    1.453227   0.000000
    13  O    1.454512   2.555349   0.000000
    14  N    1.655715   2.491360   2.490299   0.000000
    15  H    2.254602   2.658959   3.389040   1.018178   0.000000
    16  H    2.257217   3.389889   2.697235   1.018395   1.691074
    17  N    5.976207   6.583493   6.470921   6.695056   6.713562
    18  C    6.838685   7.527795   7.073943   7.682290   7.839505
    19  N    6.549681   7.469722   6.528537   7.327398   7.642637
    20  O    5.521510   6.676470   4.981790   6.326368   6.944877
    21  O    5.938604   6.646595   5.644960   7.182722   7.665566
    22  H    7.821720   8.516732   8.092606   8.562905   8.665376
    23  H    7.426737   8.380107   7.277702   8.212547   8.578067
    24  H    6.520182   6.987354   7.176363   7.159060   7.041153
    25  H    7.021199   7.573765   7.212336   8.058135   8.245083
                   16         17         18         19         20
    16  H    0.000000
    17  N    6.569840   0.000000
    18  C    7.488155   1.447383   0.000000
    19  N    6.984989   2.351086   1.466294   0.000000
    20  O    5.884002   4.249272   3.819583   2.529267   0.000000
    21  O    7.074388   3.696768   3.015106   2.577113   2.520764
    22  H    8.321297   2.072910   1.090536   2.079436   4.603176
    23  H    7.822349   3.250599   2.084181   1.020507   2.761259
    24  H    7.092913   1.009979   2.114763   3.248013   5.255138
    25  H    7.968787   2.114928   1.100779   2.130839   4.125537
                   21         22         23         24         25
    21  O    0.000000
    22  H    3.955962   0.000000
    23  H    2.859270   2.334789   0.000000
    24  H    4.593469   2.348424   4.057486   0.000000
    25  H    2.592881   1.790700   2.548553   2.655728   0.000000
 Stoichiometry    C7H8ClN3O4S2
 Framework group  C1[X(C7H8ClN3O4S2)]
 Deg. of freedom    69
 Full point group                 C1      NOp   1
 Largest Abelian subgroup         C1      NOp   1
 Largest concise Abelian subgroup C1      NOp   1
                         Standard orientation:                         
 ---------------------------------------------------------------------
 Center     Atomic      Atomic             Coordinates (Angstroms)
 Number     Number       Type             X           Y           Z
 ---------------------------------------------------------------------
      1          6           0        1.222583   -0.102590    0.045190
      2          6           0        1.215629    1.302174    0.012175
      3         17           0        2.697716    2.209921   -0.010785
      4          6           0        0.033613    2.011886   -0.024197
      5          1           0        0.058119    3.096778   -0.057846
      6          6           0       -1.208849    1.343038   -0.020014
      7          6           0       -1.185572   -0.065789    0.004029
      8         16           0       -2.687729   -1.004597    0.012351
      9          6           0        0.008240   -0.774474    0.030314
     10          1           0        0.001447   -1.862232    0.036614
     11         16           0        2.710351   -1.084015    0.138612
     12          8           0        3.517545   -0.575403    1.234796
     13          8           0        2.260497   -2.465005    0.060469
     14          7           0        3.572894   -0.799827   -1.245818
     15          1           0        3.950776    0.144697   -1.287867
     16          1           0        3.061962   -1.049069   -2.090777
     17          7           0       -2.374121    2.048477   -0.086529
     18          6           0       -3.657139    1.410429    0.117621
     19          7           0       -3.666692    0.172880   -0.668764
     20          8           0       -2.608501   -2.109279   -0.931774
     21          8           0       -3.091546   -1.262533    1.392863
     22          1           0       -4.438528    2.062884   -0.273533
     23          1           0       -4.605649   -0.207651   -0.791201
     24          1           0       -2.328308    3.052328    0.014678
     25          1           0       -3.842493    1.210425    1.184090
 ---------------------------------------------------------------------
 Rotational constants (GHZ):           0.6606535           0.2370878           0.1883077
 Basis read from rwf:  (6D, 7F)
 There are   351 symmetry adapted cartesian basis functions of A   symmetry.
 There are   351 symmetry adapted basis functions of A   symmetry.
   351 basis functions,   648 primitive gaussians,   351 cartesian basis functions
    76 alpha electrons       76 beta electrons
       nuclear repulsion energy      1744.7679675903 Hartrees.
 NAtoms=   25 NActive=   25 NUniq=   25 SFac= 1.00D+00 NAtFMM=   60 NAOKFM=F Big=F
 Integral buffers will be    131072 words long.
 Raffenetti 2 integral format.
 Two-electron integral symmetry is turned on.
 One-electron integrals computed using PRISM.
 NBasis=   351 RedAO= T EigKep=  1.70D-06  NBF=   351
 NBsUse=   349 1.00D-06 EigRej=  8.07D-07 NBFU=   349
 Initial guess from the checkpoint file:  "/jobfs/49776062.gadi-pbs/Gau-3613461.chk"
 B after Tr=     0.000000   -0.000000    0.000000
         Rot=    0.999998    0.001639    0.000243    0.001077 Ang=   0.23 deg.
 ExpMin= 4.05D-02 ExpMax= 2.52D+04 ExpMxC= 3.78D+03 IAcc=3 IRadAn=         5 AccDes= 0.00D+00
 Harris functional with IExCor= 1009 and IRadAn=       5 diagonalized for initial guess.
 HarFok:  IExCor= 1009 AccDes= 0.00D+00 IRadAn=         5 IDoV= 1 UseB2=F ITyADJ=14
 ICtDFT=  3500011 ScaDFX=  1.000000  1.000000  1.000000  1.000000
 FoFCou: FMM=F IPFlag=           0 FMFlag=      100000 FMFlg1=           0
         NFxFlg=           0 DoJE=T BraDBF=F KetDBF=T FulRan=T
         wScrn=  0.000000 ICntrl=       500 IOpCl=  0 I1Cent=   200000004 NGrid=           0
         NMat0=    1 NMatS0=      1 NMatT0=    0 NMatD0=    1 NMtDS0=    0 NMtDT0=    0
 Petite list used in FoFCou.
 Requested convergence on RMS density matrix=1.00D-08 within 128 cycles.
 Requested convergence on MAX density matrix=1.00D-06.
 Requested convergence on             energy=1.00D-06.
 No special actions if energy rises.
 SCF Done:  E(RM062X) =  -1992.77349744     A.U. after   15 cycles
            NFock= 15  Conv=0.39D-08     -V/T= 2.0051
 Calling FoFJK, ICntrl=      2127 FMM=F ISym2X=0 I1Cent= 0 IOpClX= 0 NMat=1 NMatS=1 NMatT=0.
 ***** Axes restored to original set *****
 -------------------------------------------------------------------
 Center     Atomic                   Forces (Hartrees/Bohr)
 Number     Number              X              Y              Z
 -------------------------------------------------------------------
      1        6          -0.001239793    0.000077268   -0.002791999
      2        6           0.000949641   -0.000331096    0.002433922
      3       17          -0.000235174   -0.000141283   -0.000587930
      4        6           0.001910721    0.000037803   -0.003288857
      5        1          -0.000244897    0.000124734    0.000388303
      6        6          -0.001285973   -0.000544815    0.004005419
      7        6          -0.000418016    0.000471691    0.001398739
      8       16           0.006780048   -0.002076429    0.004758091
      9        6          -0.000222097   -0.000135045   -0.000953081
     10        1          -0.000275805    0.000173043    0.000011612
     11       16           0.001797357   -0.004892710    0.002809934
     12        8           0.004324958    0.004749901   -0.000736207
     13        8          -0.005225086   -0.000521612   -0.000009018
     14        7          -0.002055388    0.003318812   -0.000283091
     15        1           0.000685100   -0.000826229    0.000740508
     16        1           0.000735616   -0.001195478    0.001201361
     17        7          -0.000522586   -0.000296477   -0.002651443
     18        6           0.002271539    0.000523695    0.000805213
     19        7          -0.002268814    0.001091972   -0.006685120
     20        8          -0.003576968   -0.005016323   -0.002300931
     21        8          -0.001890932    0.004325598    0.000822193
     22        1          -0.000069251    0.000054854    0.000041778
     23        1           0.000372887    0.001108528    0.000498870
     24        1          -0.000124759   -0.000089828    0.000418983
     25        1          -0.000172328    0.000009426   -0.000047249
 -------------------------------------------------------------------
 Cartesian Forces:  Max     0.006780048 RMS     0.002260374

 GradGradGradGradGradGradGradGradGradGradGradGradGradGradGradGradGradGrad
 Berny optimization.
 Using GEDIIS/GDIIS optimizer.
 FormGI is forming the generalized inverse of G from B-inverse, IUseBI=4.
 Internal  Forces:  Max     0.006506879 RMS     0.001314523
 Search for a local minimum.
 Step number   2 out of a maximum of  145
 All quantities printed in internal units (Hartrees-Bohrs-Radians)
 Mixed Optimization -- RFO/linear search
 Update second derivatives using D2CorX and points    1    2
 DE= -2.95D-03 DEPred=-2.87D-03 R= 1.03D+00
 TightC=F SS=  1.41D+00  RLast= 2.19D-01 DXNew= 5.0454D-01 6.5761D-01
 Trust test= 1.03D+00 RLast= 2.19D-01 DXMaxT set to 5.05D-01
 ITU=  1  0
 Use linear search instead of GDIIS.
     Eigenvalues ---    0.00673   0.01277   0.01474   0.01530   0.01696
     Eigenvalues ---    0.01711   0.01891   0.02004   0.02053   0.02123
     Eigenvalues ---    0.02154   0.02198   0.02251   0.02254   0.03055
     Eigenvalues ---    0.04192   0.05590   0.07147   0.07629   0.09260
     Eigenvalues ---    0.09879   0.09948   0.11010   0.11634   0.11990
     Eigenvalues ---    0.12381   0.13157   0.15076   0.15306   0.15930
     Eigenvalues ---    0.16000   0.16000   0.16248   0.19384   0.19616
     Eigenvalues ---    0.20232   0.23070   0.23925   0.24747   0.24915
     Eigenvalues ---    0.24990   0.24996   0.25535   0.27677   0.28473
     Eigenvalues ---    0.31533   0.33748   0.33985   0.35063   0.35178
     Eigenvalues ---    0.35336   0.36464   0.37729   0.40078   0.41472
     Eigenvalues ---    0.42876   0.43494   0.43677   0.43950   0.44167
     Eigenvalues ---    0.45287   0.45613   0.47345   0.49025   0.51717
     Eigenvalues ---    0.83027   0.88938   0.90738   0.91206
 RFO step:  Lambda=-7.84238227D-04 EMin= 6.73122898D-03
 Quartic linear search produced a step of  0.07396.
 Iteration  1 RMS(Cart)=  0.02342974 RMS(Int)=  0.00018289
 Iteration  2 RMS(Cart)=  0.00024965 RMS(Int)=  0.00003609
 Iteration  3 RMS(Cart)=  0.00000002 RMS(Int)=  0.00003609
 Variable       Old X    -DE/DX   Delta X   Delta X   Delta X     New X
                                 (Linear)    (Quad)   (Total)
    R1        2.65538  -0.00066  -0.00061  -0.00180  -0.00239   2.65299
    R2        2.62276   0.00071   0.00014   0.00183   0.00198   2.62474
    R3        3.37271   0.00372   0.00106   0.01510   0.01616   3.38887
    R4        3.28460  -0.00002  -0.00018  -0.00021  -0.00040   3.28420
    R5        2.60630   0.00170   0.00057   0.00428   0.00486   2.61115
    R6        2.05166  -0.00002   0.00002  -0.00003  -0.00001   2.05165
    R7        2.66652  -0.00202  -0.00043  -0.00549  -0.00593   2.66058
    R8        2.66305  -0.00048  -0.00065  -0.00247  -0.00313   2.65991
    R9        2.57719   0.00275   0.00153   0.00716   0.00870   2.58589
   R10        3.34749   0.00120   0.00078   0.00365   0.00443   3.35191
   R11        2.62401   0.00021   0.00007   0.00037   0.00044   2.62445
   R12        3.16705   0.00533   0.00160   0.01549   0.01707   3.18412
   R13        2.75017  -0.00651  -0.00106  -0.00865  -0.00971   2.74046
   R14        2.76147  -0.00474  -0.00100  -0.00663  -0.00762   2.75384
   R15        2.05564  -0.00021   0.00012  -0.00055  -0.00042   2.05522
   R16        2.74620  -0.00636  -0.00108  -0.00841  -0.00949   2.73671
   R17        2.74863  -0.00501  -0.00090  -0.00667  -0.00758   2.74105
   R18        3.12885   0.00184   0.00134   0.00571   0.00705   3.13589
   R19        1.92408  -0.00088  -0.00038  -0.00245  -0.00283   1.92125
   R20        1.92449  -0.00097  -0.00052  -0.00281  -0.00333   1.92116
   R21        2.73516   0.00083   0.00002   0.00352   0.00354   2.73870
   R22        1.90858  -0.00011  -0.00059  -0.00077  -0.00136   1.90722
   R23        2.77089  -0.00140  -0.00049  -0.00462  -0.00510   2.76580
   R24        2.06081  -0.00002   0.00040   0.00029   0.00068   2.06150
   R25        2.08017  -0.00005   0.00046   0.00023   0.00070   2.08087
   R26        1.92848   0.00013  -0.00057  -0.00017  -0.00075   1.92773
    A1        2.07074  -0.00096  -0.00009  -0.00382  -0.00392   2.06682
[...]
 8,0.02670613,-0.00204682,-0.04465794,-0.00148375,0.00027173,0.00167879
 ,0.01609894,-0.01350279,-0.35170562,-0.02222930,-0.00278745,-0.0395233
 9,0.01353022,0.00144955,-0.02387506,-0.00049340,-0.00030876,0.00599678
 ,0.00049558,0.00008183,-0.00041383,-0.00055311,0.00160963,0.01507628,0
 .00189190,0.00106799,-0.00392067,-0.00223497,-0.00043120,-0.00314339,0
 .00138477,-0.00235167,-0.00398004,-0.00057788,0.00020765,0.00038372,0.
 00025136,0.00077708,0.00064524,0.06957280,0.07794572,0.76136624,-0.002
 70891,-0.00040287,-0.00401682,0.00088667,0.00040276,0.00552129,0.00055
 797,-0.00001514,-0.00064903,0.00538973,-0.00163634,-0.01019584,-0.0004
 1461,0.00005388,0.00011027,0.00202832,-0.00081406,0.03280671,-0.004765
 93,-0.00131672,-0.00231819,-0.00162762,0.01042813,-0.04999480,-0.00138
 402,-0.00004374,-0.00047772,0.00035032,0.00002001,-0.00053345,0.000196
 41,0.00053560,0.00470403,0.00035558,0.00025629,-0.00119241,-0.00105535
 ,-0.00016871,-0.00111249,0.00028494,-0.00065984,-0.00122373,-0.0001282
 5,0.00010615,0.00019499,0.00012083,0.00024777,0.00021942,-0.20517971,0
 .02188202,0.04553326,0.48375405,-0.00117434,-0.00027880,-0.00130828,0.
 00054013,0.00270012,0.00220621,-0.00014160,-0.00031090,0.00003412,0.00
 247095,0.00305989,-0.00296261,-0.00013695,-0.00099309,0.00008701,-0.00
 170452,-0.00715438,0.01200169,-0.00293631,-0.00115228,-0.00055623,0.01
 215644,0.01873044,-0.00823929,-0.00003497,-0.00053274,-0.00020419,0.00
 009342,0.00006861,-0.00012273,0.00012107,0.00025006,0.00069323,-0.0000
 1183,-0.00009337,-0.00013589,-0.00021947,-0.00005327,-0.00008970,0.000
 03435,-0.00013376,-0.00012375,-0.00000914,0.00001714,-0.00002010,0.000
 03360,0.00003454,0.00000320,0.02290909,-0.05742023,-0.02319770,-0.0431
 7971,0.57292427,-0.00090317,0.00010434,0.00166207,0.00199852,-0.000140
 15,-0.00007077,-0.00013231,0.00008681,-0.00020993,-0.00296943,-0.00100
 484,-0.00282630,0.00042988,-0.00003189,0.00003268,0.03355815,-0.000837
 88,-0.02081546,0.00304035,0.00194997,0.00567628,-0.02902661,-0.0115343
 8,-0.02695003,0.00055056,-0.00018051,-0.00143757,-0.00021806,0.0000059
 9,0.00012331,-0.00000115,-0.00016458,-0.00210201,-0.00025580,-0.000215
 86,0.00061233,0.00032050,0.00006292,0.00053171,-0.00018072,0.00035191,
 0.00060736,0.00008696,-0.00003299,-0.00009404,-0.00003719,-0.00011098,
 -0.00011782,0.05753652,-0.01459658,-0.14538538,0.01381684,-0.04386903,
 0.63741284,-0.00010976,0.00119650,0.00300190,0.00083971,0.00000065,-0.
 00071291,-0.00058490,-0.00003924,0.00025019,-0.00058407,0.00081992,0.0
 0167636,0.00034756,-0.00014513,-0.00010217,0.00359684,0.00045670,-0.00
 969297,0.00860059,-0.00876905,0.03092460,-0.09988927,-0.01010897,0.009
 44085,-0.00568766,-0.00157803,-0.00053268,-0.00049404,-0.00037828,0.00
 020612,-0.00089677,-0.00010652,-0.00307891,-0.00016881,-0.00031900,0.0
 0087852,0.00089566,0.00014104,0.00082315,-0.00012763,0.00055750,0.0009
 7921,0.00008829,-0.00008245,-0.00016813,-0.00010785,-0.00015475,-0.000
 13900,-0.04822556,-0.02269470,-0.01437855,-0.13141201,-0.07454003,-0.0
 4829221,0.59175911,-0.00051196,0.00017381,0.00093679,0.00043873,-0.000
 20464,0.00027869,-0.00027139,0.00003928,0.00009105,-0.00010410,0.00009
 060,0.00020689,0.00003521,-0.00003464,-0.00002863,-0.00011836,0.000477
 42,-0.00163289,0.00516388,0.00375949,0.00719283,-0.00570940,-0.0914036
 8,0.03362185,-0.00175494,-0.00017827,-0.00059579,-0.00018232,-0.000227
 27,-0.00005250,-0.00010872,-0.00060592,-0.00102989,-0.00006540,0.00004
 758,0.00033033,0.00017091,0.00022074,0.00028789,-0.00012151,0.00039123
 ,0.00029923,0.00002846,-0.00003854,-0.00004261,-0.00005439,-0.00009259
 ,-0.00000320,-0.01073987,0.00519404,0.00198271,-0.04905162,-0.12363041
 ,-0.03375786,0.16235961,0.24046624,0.00312253,-0.00071567,-0.00003986,
 -0.00194230,-0.00037715,-0.00319472,0.00090917,-0.00002364,-0.00014223
 ,-0.00204327,0.00004598,0.00388447,0.00034877,0.00019772,-0.00013823,0
 .00121311,0.00204039,-0.01296034,0.00188818,0.01047123,-0.01561123,-0.
 02788237,0.06603902,-0.15524356,0.00276334,0.00122758,0.00284442,-0.00
 042083,0.00032629,0.00069488,-0.00042360,0.00005246,0.00136995,0.00035
 057,0.00030509,-0.00050444,0.00020896,-0.00006139,-0.00048026,0.000296
 00,-0.00051623,-0.00058082,-0.00008586,0.00005224,0.00013238,-0.000007
 74,0.00011861,0.00008501,0.00886710,0.00723745,0.02157390,-0.01781951,
 -0.04007734,-0.13544553,-0.08426441,-0.04425028,0.49117717,-0.00185869
 ,0.00070166,0.00095270,0.00146661,-0.00008696,0.00032963,-0.00135285,0
 .00008870,0.00065204,-0.00101414,0.00087967,-0.00213064,-0.00066782,0.
 00011618,0.00041249,-0.00325949,-0.00138908,0.01059365,-0.01394848,-0.
 01711286,-0.01834392,-0.30498753,-0.21125987,-0.16312348,0.00097841,0.
 00026078,-0.00379003,-0.00112373,-0.00046512,0.00017525,-0.00093878,-0
 .00049629,-0.00410803,-0.00014182,-0.00033653,0.00124244,0.00113746,0.
 00024163,0.00131994,-0.00012118,0.00071519,0.00121304,0.00008984,-0.00
 014278,-0.00029233,-0.00015042,-0.00023143,-0.00023144,0.00098354,0.00
 006514,-0.00241293,0.00105960,0.00135660,-0.00245664,-0.00224597,-0.00
 841109,-0.00812428,0.31282422,-0.00098917,-0.00005386,0.00105123,0.000
 69110,-0.00004701,0.00044562,-0.00034636,0.00007678,0.00020353,-0.0001
 5516,-0.00025318,-0.00110445,-0.00021743,-0.00006916,0.00018228,-0.002
 38512,0.00013578,0.00225447,0.00143133,0.00540936,-0.00495945,-0.20279
 528,-0.27350929,-0.15062140,0.00027014,0.00016427,-0.00174589,-0.00025
 308,-0.00076898,0.00034175,-0.00072797,-0.00092798,-0.00155375,0.00009
 443,0.00016110,0.00045481,0.00061123,0.00042190,0.00042911,-0.00002032
 ,0.00045803,0.00044896,0.00001193,-0.00005480,-0.00009234,-0.00015127,
 -0.00011276,-0.00001284,-0.00002928,0.00033079,0.00052238,-0.00064452,
 0.00013798,0.00021149,0.00824297,0.01015243,0.00573663,0.22490933,0.27
 301352,0.00005344,0.00051406,0.00235484,0.00016346,-0.00007528,-0.0004
 1346,0.00011782,-0.00001341,0.00012072,0.00002454,-0.00007563,0.001575
 28,0.00020858,-0.00009074,-0.00003141,0.00053012,0.00052046,-0.0075089
 9,0.00627223,0.00025229,0.01103984,-0.15678535,-0.15206212,-0.20070679
 ,-0.00071668,0.00059107,-0.00209753,-0.00069687,-0.00070642,0.00162433
 ,-0.00178693,-0.00021497,-0.00096972,0.00038537,0.00017679,0.00018127,
 0.00111872,0.00018780,0.00008935,0.00029340,0.00000411,0.00024560,-0.0
 0002199,-0.00004281,-0.00003052,-0.00012106,0.00000451,0.00000208,-0.0
 0195978,-0.00059540,0.00433365,0.00743322,0.00848940,-0.00604439,-0.03
 293922,-0.02215790,-0.01154988,0.19234452,0.17116259,0.19313244,-0.003
 36339,-0.00136527,0.00147716,0.00206188,0.00027457,0.00190859,-0.00127
 236,0.00024554,0.00049131,0.00107091,-0.00120631,-0.00116491,-0.000224
 79,-0.00000414,0.00003982,0.00021929,0.00017996,0.00626813,-0.00129000
 ,0.02469736,0.00956580,-0.11093620,0.11709329,0.01883879,-0.00162277,0
 .00173378,-0.00453147,-0.00050587,0.00084639,0.00009136,-0.00088841,-0
 .00066470,-0.00351144,-0.00022282,-0.00039712,0.00128208,0.00090383,0.
 00017216,0.00105214,-0.00010089,0.00058188,0.00093622,0.00008812,-0.00
 010819,-0.00025858,-0.00010466,-0.00018107,-0.00017952,0.00188258,0.00
 049488,-0.00327009,-0.00094723,-0.00066760,0.00056636,0.01284425,0.007
 67949,-0.00347524,0.01484129,-0.02757620,-0.01118727,0.08928663,0.0014
 3103,0.00076728,-0.00153238,-0.00107405,-0.00020731,-0.00034975,0.0008
 5477,-0.00014104,-0.00033332,0.00061097,0.00055410,0.00076314,0.000326
 57,-0.00010281,-0.00017162,0.00113747,-0.00112026,-0.00370679,-0.00091
 680,-0.00526006,-0.00188037,0.10287663,-0.55714292,-0.07529597,0.00296
 930,-0.00034375,0.00086286,0.00006064,-0.00105253,0.00036624,0.0002388
 5,-0.00068545,0.00244793,0.00035836,0.00077224,-0.00089390,-0.00037314
 ,0.00027902,-0.00076941,0.00010358,-0.00020539,-0.00067161,-0.00008541
 ,0.00005098,0.00016815,-0.00001554,0.00008487,0.00016087,0.00062380,0.
 00107644,0.00165581,-0.00552463,-0.00680121,-0.00401705,0.00748178,-0.
 01538216,0.00436799,0.01148894,-0.01396298,-0.00146968,-0.12677018,0.5
 9708195,0.00178977,0.00077818,0.00105504,-0.00101065,-0.00017728,-0.00
 149394,0.00071756,-0.00012102,-0.00020352,-0.00065953,0.00082293,0.002
 43370,0.00040175,-0.00000852,-0.00017849,0.00135756,-0.00188567,-0.012
 33135,0.00814439,-0.01088603,0.01092965,0.01475878,-0.07444988,-0.0901
 9455,-0.00118982,0.00019402,0.00170356,-0.00030275,-0.00007620,0.00035
 993,-0.00061072,0.00021846,0.00053011,0.00020674,0.00013195,-0.0002885
 7,0.00029854,-0.00006562,-0.00029510,0.00018380,-0.00025109,-0.0001935
 4,-0.00003607,0.00001982,0.00008439,-0.00000985,0.00007057,0.00005580,
 -0.00188999,-0.00073165,0.00724638,0.00776710,0.00193094,-0.00115427,-
 0.01554853,0.02816074,-0.00145422,-0.00005144,-0.02228764,0.01196603,-
 0.01244025,0.07836516,0.06838435,0.00020551,0.00000065,0.00031698,-0.0
 0034597,0.00027550,-0.00047874,-0.00010886,-0.00001314,0.00015200,0.00
 011128,0.00041920,0.00176269,0.00000077,-0.00014148,-0.00004596,-0.004
 83294,-0.00265660,-0.00115909,0.00038498,0.00026119,0.00017424,-0.0031
 4193,-0.00307873,0.00135389,0.00024905,0.00002448,0.00001529,-0.000070
 99,-0.00000306,0.00008549,-0.00004749,-0.00002405,-0.00037102,-0.00001
 526,-0.00001315,0.00007958,0.00010797,0.00001306,0.00008589,-0.0000129
 2,0.00004520,0.00009945,0.00000710,-0.00001145,-0.00001463,-0.00001051
 ,-0.00001893,-0.00001403,-0.00079028,-0.00920077,0.03724014,-0.0539311
 9,0.01387494,-0.03113798,-0.00484405,0.00844150,-0.02528871,-0.0009431
 9,-0.00021922,-0.00239232,0.00022207,0.00053239,-0.00058522,0.06499171
 ,0.00000452,-0.00001597,0.00005146,0.00001053,-0.00003820,-0.00008294,
 -0.00000127,0.00000608,-0.00000665,-0.00002120,-0.00009371,-0.00000855
 ,0.00001912,0.00000920,0.00000259,0.00095256,-0.00013165,-0.00142714,-
 0.00011911,0.00039730,0.00004945,-0.00164977,-0.00528008,-0.00024819,0
 .00009364,-0.00010465,-0.00005968,-0.00002435,-0.00000093,0.00001501,-
 0.00000978,0.00002966,-0.00006752,0.00000086,-0.00000262,0.00000884,0.
 00001983,-0.00000057,0.00001629,-0.00000354,0.00000266,0.00002685,0.00
 000288,0.00000012,-0.00000495,-0.00000184,-0.00000173,-0.00000763,-0.0
 0057394,0.00334845,-0.00668696,0.01446006,-0.10492510,0.11352575,-0.00
 396373,0.00780343,-0.02317644,-0.00074007,0.00047215,-0.00177066,0.000
 76031,0.00192663,0.00120490,-0.01265428,0.10473231,-0.00004753,-0.0000
 2509,-0.00011253,0.00008298,-0.00012685,0.00020565,0.00012644,0.000002
 54,-0.00009918,-0.00005743,-0.00016929,-0.00079342,0.00002538,0.000027
 85,-0.00000669,0.00278130,0.00159644,0.00124361,-0.00017055,0.00013088
 ,0.00048361,-0.00066580,-0.00295381,0.00180963,0.00000406,0.00001260,-
 0.00005427,-0.00000912,0.00000006,0.00001742,-0.00005497,0.00004693,0.
 00028820,0.00004094,0.00002984,-0.00008691,-0.00002053,-0.00001310,-0.
 00008652,0.00003684,-0.00006695,-0.00008601,-0.00001031,0.00001006,0.0
 0001768,0.00000266,0.00002079,0.00001456,0.00298500,0.00347239,-0.0168
 3842,-0.02689399,0.10384760,-0.27244483,-0.00530645,0.00395966,-0.0166
 5100,-0.00052405,0.00000133,-0.00097968,0.00005777,0.00058838,0.000364
 76,0.02801632,-0.11066619,0.29846433,0.00046867,-0.00008748,-0.0001116
 6,-0.00026108,-0.00000510,-0.00050778,0.00007534,0.00000431,-0.0000044
 4,-0.00038704,0.00009176,0.00056966,0.00004831,-0.00003226,-0.00001647
 ,0.00043607,0.00024849,-0.00194782,0.00008105,0.00015059,-0.00293817,0
 .01119214,0.00370915,-0.00350002,0.00065389,0.00022941,0.00019290,0.00
 003429,0.00004418,0.00008151,0.00004118,-0.00003466,0.00024339,0.00002
 818,0.00004382,-0.00007745,-0.00003071,-0.00000432,-0.00007894,0.00003
 123,-0.00006471,-0.00011048,-0.00001257,0.00000533,0.00002134,0.000006
 00,0.00001522,0.00001979,-0.00399325,-0.00279468,-0.00287246,-0.013353
 80,0.00410512,0.01505075,-0.32085279,-0.07827606,0.16230124,-0.0011678
 5,-0.00068077,0.00084716,-0.00200816,0.00183304,-0.00058776,0.00042645
 ,0.00045023,-0.00016141,0.32881533,0.00045731,-0.00017220,0.00000908,-
 0.00020668,0.00006717,-0.00016838,0.00019745,-0.00001512,-0.00008532,-
 0.00005973,-0.00003547,-0.00004091,0.00001181,-0.00001006,-0.00001827,
 0.00041073,-0.00024729,0.00055309,0.00091054,0.00080666,0.00034700,-0.
 01262091,-0.00305453,0.01860185,-0.00061465,0.00033470,0.00027759,0.00
 003549,0.00009746,0.00001482,-0.00005906,0.00012274,0.00049473,0.00003
 761,-0.00000335,-0.00012478,-0.00005529,-0.00005614,-0.00015037,0.0000
 6563,-0.00014366,-0.00017013,-0.00001486,0.00002017,0.00003593,0.00001
 749,0.00004721,0.00002223,0.00132342,-0.00050814,-0.00241351,-0.017925
 84,-0.00734835,0.00850335,-0.04737585,-0.01689490,0.02033900,-0.000090
 31,-0.00188079,-0.00164804,0.00322564,-0.00228264,-0.00254935,0.000652
 57,0.00116895,0.00031277,0.07164712,0.03068720,0.00043133,-0.00039520,
 -0.00019936,-0.00028865,0.00004636,-0.00069345,0.00007546,0.00000784,0
 .00001373,-0.00055663,0.00002335,0.00073943,0.00006555,-0.00003270,0.0
 0002226,-0.00050862,-0.00039804,-0.00268958,-0.00211991,0.00259139,-0.
 00612851,0.03290739,0.00354553,-0.01450735,0.00163940,0.00069551,0.000
 34366,0.00002749,0.00015923,0.00001051,0.00019596,-0.00006455,0.000090
 89,-0.00001506,0.00003551,-0.00003319,-0.00006008,-0.00001978,-0.00003
 429,-0.00000049,-0.00005212,-0.00006957,-0.00000267,0.00000157,0.00000
 487,0.00001325,0.00000578,-0.00000901,-0.00511002,-0.00240416,-0.00057
 981,-0.01708063,-0.00422878,0.01344889,0.16555786,0.04609644,-0.162540
 69,-0.00342398,-0.00230066,0.00310509,-0.00238954,-0.00047044,0.001849
 70,-0.00050923,0.00059227,0.00058205,-0.16750774,-0.04207060,0.1668930
 0,0.00012263,0.00010238,0.00109084,-0.00027896,0.00012678,-0.00107655,
 -0.00019894,-0.00000206,0.00004613,0.00119887,0.00023473,0.00353306,-0
 .00067143,-0.00012192,-0.00018839,0.00828022,0.00063509,-0.00057014,0.
 00169509,0.00009116,0.00353838,-0.00112461,-0.00052396,0.00199478,0.00
 032886,-0.00010378,-0.00045710,-0.00000342,0.00004213,0.00007498,0.000
 11381,-0.00015428,-0.00113810,-0.00018861,-0.00007950,0.00029361,0.000
 08097,0.00003571,0.00021963,-0.00012921,0.00018233,0.00029749,0.000055
 37,-0.00000354,-0.00001292,-0.00001214,-0.00005523,-0.00005104,-0.3498
 2155,-0.03895026,-0.17559366,-0.01329377,-0.00344924,-0.01575751,-0.00
 372554,0.00011497,0.00222856,0.00032347,0.00008890,-0.00027680,0.00031
 036,0.00010887,-0.00044027,0.00096181,-0.00053654,0.00004584,-0.000663
 43,0.00008879,-0.00097563,0.35764185,-0.00000144,0.00008772,-0.0003224
 3,0.00003001,-0.00091975,0.00035267,0.00000998,0.00009673,0.00000389,0
 .00023190,-0.00195934,-0.00037021,0.00020957,0.00081904,-0.00023195,0.
 00093428,-0.00340185,0.00502629,-0.00114697,0.00296458,0.00025159,0.00
 001713,-0.00045186,0.00045582,0.00026482,0.00166938,0.00006594,0.00001
 418,-0.00017389,0.00006133,-0.00001257,0.00018447,0.00028636,0.0000036
 3,-0.00007056,-0.00004257,-0.00002429,-0.00007577,-0.00003689,0.000058
 71,-0.00013637,-0.00009056,-0.00001617,0.00001480,-0.00000399,0.000002
 81,0.00002747,-0.00000434,-0.04481644,-0.00294704,-0.03371092,0.005167
 21,-0.00314427,0.00013013,-0.00371719,-0.00152644,0.00028891,0.0000027
 3,-0.00005785,-0.00020872,-0.00008882,-0.00018730,-0.00007359,0.000119
 90,0.00081497,-0.00021432,-0.00062966,0.00030309,-0.00048466,0.0419623
 1,0.00898083,0.00073850,-0.00000592,0.00060352,0.00007124,0.00015987,-
 0.00093321,-0.00013881,0.00000990,0.00014584,-0.00224208,0.00050505,0.
 00208179,0.00155368,-0.00027470,-0.00038728,-0.03178181,-0.00384364,-0
 .01827569,0.00334411,-0.00054631,-0.00435656,0.00064450,0.00032626,-0.
 00203571,-0.00210031,0.00009318,0.00009304,0.00019820,-0.00001068,-0.0
 0035147,-0.00001222,-0.00007755,-0.00040212,-0.00000741,-0.00001367,0.
 00010555,0.00015836,0.00002142,0.00010501,-0.00000966,0.00006167,0.000
 09823,0.00000470,-0.00002480,-0.00004189,-0.00000790,-0.00002228,-0.00
 002203,-0.17361758,-0.02935878,-0.18025639,0.01396156,0.00275494,0.013
 83016,0.00475326,0.00049088,-0.00134628,-0.00007253,0.00000123,0.00050
 931,-0.00001389,-0.00015645,0.00039134,0.00018670,0.00063765,0.0005293
 9,0.00095730,0.00021111,0.00082240,0.18267265,0.02973914,0.18957834,0.
 00079650,0.00014510,0.00116660,-0.00019007,-0.00055679,-0.00168697,-0.
 00015253,0.00006668,0.00011924,-0.00172343,-0.00041575,0.00262232,0.00
 011620,0.00027137,-0.00003694,-0.00016393,0.00230621,-0.00883207,0.001
 24615,0.00033488,0.00040172,-0.00034969,-0.00560190,0.00567494,-0.0001
 0182,0.00003412,0.00016780,-0.00004875,0.00000704,0.00005208,0.0000417
 7,-0.00010471,-0.00121456,-0.00012689,-0.00009080,0.00031038,0.0002135
 5,0.00003124,0.00027476,-0.00010045,0.00017645,0.00031115,0.00003814,-
 0.00002064,-0.00004249,-0.00002432,-0.00006394,-0.00005429,-0.02302623
 ,0.02540683,0.01695541,-0.06478199,0.07051000,0.00441340,0.00098470,-0
 .02895161,-0.01271942,0.00021749,0.00083977,-0.00090830,-0.00024363,0.
 00172276,-0.00026314,0.00142689,0.00352487,-0.00028338,0.00039254,-0.0
 0005842,-0.00036479,-0.00100172,0.00142437,0.00075945,0.08656150,0.000
 52956,0.00000402,0.00003083,-0.00033571,-0.00009353,-0.00062688,0.0000
 2435,0.00001634,0.00001279,-0.00054881,-0.00028883,0.00056782,-0.00001
 196,0.00002337,0.00000422,0.00005301,0.00044431,-0.00151980,0.00059508
 ,-0.00000484,-0.00084953,0.00055330,-0.00506057,0.00448484,-0.00011504
 ,-0.00000403,0.00048312,-0.00000228,0.00000237,0.00001719,-0.00000431,
 -0.00000627,0.00014393,0.00002813,0.00003278,-0.00005944,-0.00000672,0
 .00000410,-0.00004434,0.00001486,-0.00002087,-0.00005028,-0.00000969,0
 .00000204,0.00001117,-0.00000063,0.00000687,0.00001413,0.00508125,0.00
 695380,0.00008676,0.06782385,-0.28395090,-0.01443808,-0.00728375,-0.01
 859686,-0.00964846,-0.00006415,0.00076454,-0.00077129,0.00104434,0.002
 28431,0.00166585,0.00337427,-0.01011669,0.00017549,0.00003195,-0.00100
 272,-0.00087908,0.00016618,-0.00091079,-0.00067750,-0.07093711,0.30951
 804,-0.00046457,-0.00008475,-0.00029407,0.00021805,0.00032447,0.000686
 68,0.00003076,-0.00003788,-0.00004852,0.00066941,0.00044883,-0.0012070
 5,-0.00008047,-0.00015340,0.00003395,0.00024190,-0.00154873,0.00337027
 ,-0.00050831,0.00070621,-0.00011019,0.00074099,-0.00748056,0.00009268,
 0.00014936,0.00007946,-0.00030928,0.00001880,-0.00000375,-0.00003361,-
 0.00000095,-0.00005845,0.00021755,0.00001415,0.00002904,-0.00003602,-0
 .00005212,0.00001127,-0.00004739,0.00001616,-0.00001851,-0.00005945,-0
 .00000530,0.00000388,0.00000682,0.00000215,0.00001036,0.00001117,0.014
 96414,-0.01693274,-0.00335619,0.00143992,-0.00691272,-0.05883930,-0.00
 333588,-0.02038444,-0.00387888,-0.00014999,0.00123101,0.00005256,-0.00
 015336,0.00197221,0.00043283,-0.00757173,0.02808245,0.00421858,0.00013
 759,-0.00028289,-0.00044167,0.00050216,-0.00086692,-0.00048528,-0.0068
 2287,0.02186655,0.06002380\\-0.00000959,-0.00000010,0.00001205,0.00000
 691,0.00000646,-0.00000195,0.00000255,-0.00000484,0.00000320,0.0000015
 2,-0.00000342,0.00000531,0.00000058,-0.00000460,-0.00000131,-0.0000028
 8,-0.00000928,-0.00002181,0.00001047,0.00000380,0.00001046,-0.00001261
 ,0.00002301,-0.00001705,0.00000215,-0.00000389,-0.00000689,-0.00000124
 ,0.00000234,-0.00000028,-0.00001043,0.00002521,-0.00001184,-0.00001852
 ,-0.00000876,0.00000335,0.00001733,0.00000421,0.00000986,0.00001149,-0
 .00001930,-0.00001415,-0.00000290,-0.00000126,0.00000675,-0.00000790,0
 .00000021,-0.00000250,0.00000313,0.00000606,0.00001295,-0.00000172,-0.
 00000584,-0.00001059,0.00000212,-0.00000369,0.00000685,0.00000736,0.00
 001025,0.00000936,-0.00000284,-0.00001850,0.00000206,-0.00000076,0.000
 00168,0.00000045,0.00000067,-0.00000021,0.00000371,0.00000203,0.000000
 37,-0.00000096,0.00000306,0.00000009,0.00000297\\\@
 The archive entry for this job was punched.


 IT IS THE BEHAVIOR AND DISTRIBUTION OF THE ELECTRONS 
 AROUND THE NUCLEUS THAT GIVES THE FUNDAMENTAL 
 CHARACTER OF AN ATOM:  IT MUST BE THE SAME FOR MOLECULES.

                               -- C. A. COULSON, 1951
 Job cpu time:       0 days  2 hours 26 minutes 45.0 seconds.
 Elapsed time:       0 days  0 hours  9 minutes 46.7 seconds.
 File lengths (MBytes):  RWF=    373 Int=      0 D2E=      0 Chk=     11 Scr=      1
 Normal termination of Gaussian 16 at Fri Jul  1 09:30:31 2022.
