 Entering Gaussian System, Link 0=g16
 AtFile(1): /home/561/yj5695/Basis/6-31pGd.gbs
 Initial command:
 /apps/gaussian/g16c01/g16/l1.exe "/jobfs/49788884.gadi-pbs/Gau-2814975.inp" -scrdir="/jobfs/49788884.gadi-pbs/"
 Entering Link 1 = /apps/gaussian/g16c01/g16/l1.exe PID=   2814976.
  
 Copyright (c) 1988-2019, Gaussian, Inc.  All Rights Reserved.
  
 This is part of the Gaussian(R) 16 program.  It is based on
 the Gaussian(R) 09 system (copyright 2009, Gaussian, Inc.),
 the Gaussian(R) 03 system (copyright 2003, Gaussian, Inc.),
 the Gaussian(R) 98 system (copyright 1998, Gaussian, Inc.),
 the Gaussian(R) 94 system (copyright 1995, Gaussian, Inc.),
 the Gaussian 92(TM) system (copyright 1992, Gaussian, Inc.),
 the Gaussian 90(TM) system (copyright 1990, Gaussian, Inc.),
 the Gaussian 88(TM) system (copyright 1988, Gaussian, Inc.),
 the Gaussian 86(TM) system (copyright 1986, Carnegie Mellon
 University), and the Gaussian 82(TM) system (copyright 1983,
 Carnegie Mellon University). Gaussian is a federally registered
 trademark of Gaussian, Inc.
  
 This software contains proprietary and confidential information,
 including trade secrets, belonging to Gaussian, Inc.
  
 This software is provided under written license and may be
 used, copied, transmitted, or stored only in accord with that
 written license.
  
 The following legend is applicable only to US Government
 contracts under FAR:
  
                    RESTRICTED RIGHTS LEGEND
  
 Use, reproduction and disclosure by the US Government is
 subject to restrictions as set forth in subparagraphs (a)
 and (c) of the Commercial Computer Software - Restricted
 Rights clause in FAR 52.227-19.
  
 Gaussian, Inc.
 340 Quinnipiac St., Bldg. 40, Wallingford CT 06492
  
  
 ---------------------------------------------------------------
 Warning -- This program may not be used in any manner that
 competes with the business of Gaussian, Inc. or will provide
 assistance to any competitor of Gaussian, Inc.  The licensee
 of this program is prohibited from giving any competitor of
 Gaussian, Inc. access to this program.  By using this program,
 the user acknowledges that Gaussian, Inc. is engaged in the
 business of creating and licensing software in the field of
 computational chemistry and represents and warrants to the
 licensee that it is not a competitor of Gaussian, Inc. and that
 it will not use this program in any manner prohibited above.
 ---------------------------------------------------------------
  

 Cite this work as:
 Gaussian 16, Revision C.01,
 M. J. Frisch, G. W. Trucks, H. B. Schlegel, G. E. Scuseria, 
 M. A. Robb, J. R. Cheeseman, G. Scalmani, V. Barone, 
 G. A. Petersson, H. Nakatsuji, X. Li, M. Caricato, A. V. Marenich, 
 J. Bloino, B. G. Janesko, R. Gomperts, B. Mennucci, H. P. Hratchian, 
 J. V. Ortiz, A. F. Izmaylov, J. L. Sonnenberg, D. Williams-Young, 
 F. Ding, F. Lipparini, F. Egidi, J. Goings, B. Peng, A. Petrone, 
 T. Henderson, D. Ranasinghe, V. G. Zakrzewski, J. Gao, N. Rega, 
 G. Zheng, W. Liang, M. Hada, M. Ehara, K. Toyota, R. Fukuda, 
 J. Hasegawa, M. Ishida, T. Nakajima, Y. Honda, O. Kitao, H. Nakai, 
 T. Vreven, K. Throssell, J. A. Montgomery, Jr., J. E. Peralta, 
 F. Ogliaro, M. J. Bearpark, J. J. Heyd, E. N. Brothers, K. N. Kudin, 
 V. N. Staroverov, T. A. Keith, R. Kobayashi, J. Normand, 
 K. Raghavachari, A. P. Rendell, J. C. Burant, S. S. Iyengar, 
 J. Tomasi, M. Cossi, J. M. Millam, M. Klene, C. Adamo, R. Cammi, 
 J. W. Ochterski, R. L. Martin, K. Morokuma, O. Farkas, 
 J. B. Foresman, and D. J. Fox, Gaussian, Inc., Wallingford CT, 2019.
 
 ******************************************
 Gaussian 16:  ES64L-G16RevC.01  3-Jul-2019
                 1-Jul-2022 
 ******************************************
 %nproc=16
 Will use up to   16 processors via shared memory.
 %mem=50gb
 --------------------------------------------------
 #M062X/gen 6D INT(grid=ultrafine) OPT Freq=noraman
 --------------------------------------------------
 1/18=20,19=15,26=4,38=1/1,3;
 2/9=110,12=2,17=6,18=5,40=1/2;
 3/5=7,8=2,11=2,25=1,30=1,71=1,74=-55,75=-5/1,2,3;
 4//1;
 5/5=2,38=5/2;
 6/7=2,8=2,9=2,10=2,28=1/1;
 7//1,2,3,16;
 1/18=20,19=15,26=4/3(2);
 2/9=110/2;
 99//99;
 2/9=110/2;
 3/5=7,6=1,8=2,11=2,25=1,30=1,71=1,74=-55,75=-5,82=7/1,2,3;
 4/5=5,16=3,69=1/1;
 5/5=2,38=5/2;
 7//1,2,3,16;
 1/18=20,19=15,26=4/3(-5);
 2/9=110/2;
 6/7=2,8=2,9=2,10=2,19=2,28=1/1;
 99/9=1/99;
 ----------
 HA.34.freq
 ----------
 Symbolic Z-matrix:
 Charge =  0 Multiplicity = 1
 C                    -1.55467   1.03339  -0.8376 
 C                    -2.68984   0.78333  -1.63081 
 Cl                   -4.29152   0.8358   -0.95348 
 C                    -2.57585   0.46634  -2.96879 
 H                    -3.46034   0.2682   -3.56625 
 C                    -1.3008    0.38906  -3.55666 
 C                    -0.16276   0.64898  -2.76945 
 C                     1.17437   0.62268  -3.4014 
 C                    -0.29686   0.96216  -1.42454 
 S                    -1.64493   1.46687   0.88442 
 O                    -0.26628   1.58739   1.35297 
 O                    -2.55117   2.6029    1.0424 
 N                    -2.31019   0.22265   1.73547 
 H                    -1.78633  -0.64796   1.62267 
 H                    -3.30079   0.0872    1.52972 
 N                    -1.15845   0.11372  -4.88633 
 C                     0.10039  -0.34181  -5.42413 
 N                     1.18984   0.29489  -4.72027 
 H                    -1.98525  -0.18843  -5.39396 
 O                     2.2047    0.94261  -2.80166 
 H                     0.5924    1.15739  -0.83385 
 H                     2.10519   0.26636  -5.16226 
 C                     0.18855  -1.88534  -5.41741 
 H                     0.15129  -0.05319  -6.47691 
 H                    -0.65967  -2.30722  -5.95648 
 Cl                    0.15935  -2.5522   -3.76413 
 Cl                    1.67189  -2.40021  -6.26995 
 

 GradGradGradGradGradGradGradGradGradGradGradGradGradGradGradGradGradGrad
 Berny optimization.
 Initialization pass.
                           ----------------------------
                           !    Initial Parameters    !
                           ! (Angstroms and Degrees)  !
 --------------------------                            --------------------------
 ! Name  Definition              Value          Derivative Info.                !
 --------------------------------------------------------------------------------
 ! R1    R(1,2)                  1.4072         estimate D2E/DX2                !
 ! R2    R(1,9)                  1.3898         estimate D2E/DX2                !
 ! R3    R(1,10)                 1.778          estimate D2E/DX2                !
 ! R4    R(2,3)                  1.7398         estimate D2E/DX2                !
 ! R5    R(2,4)                  1.3797         estimate D2E/DX2                !
 ! R6    R(4,5)                  1.0856         estimate D2E/DX2                !
 ! R7    R(4,6)                  1.4062         estimate D2E/DX2                !
 ! R8    R(6,7)                  1.408          estimate D2E/DX2                !
 ! R9    R(6,16)                 1.3653         estimate D2E/DX2                !
 ! R10   R(7,8)                  1.4792         estimate D2E/DX2                !
 ! R11   R(7,9)                  1.3874         estimate D2E/DX2                !
 ! R12   R(8,18)                 1.3591         estimate D2E/DX2                !
 ! R13   R(8,20)                 1.2343         estimate D2E/DX2                !
 ! R14   R(9,21)                 1.0853         estimate D2E/DX2                !
 ! R15   R(10,11)                1.4611         estimate D2E/DX2                !
 ! R16   R(10,12)                1.4618         estimate D2E/DX2                !
 ! R17   R(10,13)                1.6477         estimate D2E/DX2                !
 ! R18   R(13,14)                1.0223         estimate D2E/DX2                !
 ! R19   R(13,15)                1.0208         estimate D2E/DX2                !
 ! R20   R(16,17)                1.4427         estimate D2E/DX2                !
 ! R21   R(16,19)                1.0162         estimate D2E/DX2                !
 ! R22   R(17,18)                1.4449         estimate D2E/DX2                !
 ! R23   R(17,23)                1.5461         estimate D2E/DX2                !
 ! R24   R(17,24)                1.0928         estimate D2E/DX2                !
 ! R25   R(18,22)                1.0169         estimate D2E/DX2                !
 ! R26   R(23,25)                1.09           estimate D2E/DX2                !
 ! R27   R(23,26)                1.7829         estimate D2E/DX2                !
 ! R28   R(23,27)                1.7867         estimate D2E/DX2                !
 ! A1    A(2,1,9)              118.874          estimate D2E/DX2                !
 ! A2    A(2,1,10)             123.2489         estimate D2E/DX2                !
 ! A3    A(9,1,10)             117.8684         estimate D2E/DX2                !
 ! A4    A(1,2,3)              121.1862         estimate D2E/DX2                !
 ! A5    A(1,2,4)              121.3851         estimate D2E/DX2                !
 ! A6    A(3,2,4)              117.4207         estimate D2E/DX2                !
 ! A7    A(2,4,5)              120.5517         estimate D2E/DX2                !
 ! A8    A(2,4,6)              119.5348         estimate D2E/DX2                !
 ! A9    A(5,4,6)              119.9112         estimate D2E/DX2                !
 ! A10   A(4,6,7)              119.2763         estimate D2E/DX2                !
 ! A11   A(4,6,16)             120.8487         estimate D2E/DX2                !
 ! A12   A(7,6,16)             119.8325         estimate D2E/DX2                !
 ! A13   A(6,7,8)              119.2427         estimate D2E/DX2                !
 ! A14   A(6,7,9)              120.3668         estimate D2E/DX2                !
 ! A15   A(8,7,9)              120.3672         estimate D2E/DX2                !
 ! A16   A(7,8,18)             115.4147         estimate D2E/DX2                !
 ! A17   A(7,8,20)             122.8448         estimate D2E/DX2                !
 ! A18   A(18,8,20)            121.6353         estimate D2E/DX2                !
 ! A19   A(1,9,7)              120.5589         estimate D2E/DX2                !
 ! A20   A(1,9,21)             120.1639         estimate D2E/DX2                !
 ! A21   A(7,9,21)             119.2763         estimate D2E/DX2                !
 ! A22   A(1,10,11)            106.4271         estimate D2E/DX2                !
 ! A23   A(1,10,12)            109.0025         estimate D2E/DX2                !
 ! A24   A(1,10,13)            109.6722         estimate D2E/DX2                !
 ! A25   A(11,10,12)           119.0919         estimate D2E/DX2                !
 ! A26   A(11,10,13)           106.1186         estimate D2E/DX2                !
 ! A27   A(12,10,13)           106.3032         estimate D2E/DX2                !
 ! A28   A(10,13,14)           112.2833         estimate D2E/DX2                !
 ! A29   A(10,13,15)           112.8245         estimate D2E/DX2                !
 ! A30   A(14,13,15)           111.2253         estimate D2E/DX2                !
 ! A31   A(6,16,17)            121.1776         estimate D2E/DX2                !
 ! A32   A(6,16,19)            117.493          estimate D2E/DX2                !
 ! A33   A(17,16,19)           115.4579         estimate D2E/DX2                !
 ! A34   A(16,17,18)           109.7052         estimate D2E/DX2                !
 ! A35   A(16,17,23)           111.307          estimate D2E/DX2                !
 ! A36   A(16,17,24)           108.4438         estimate D2E/DX2                !
 ! A37   A(18,17,23)           113.2545         estimate D2E/DX2                !
 ! A38   A(18,17,24)           108.5294         estimate D2E/DX2                !
 ! A39   A(23,17,24)           105.3791         estimate D2E/DX2                !
 ! A40   A(8,18,17)            124.7794         estimate D2E/DX2                !
 ! A41   A(8,18,22)            116.0277         estimate D2E/DX2                !
 ! A42   A(17,18,22)           117.041          estimate D2E/DX2                !
 ! A43   A(17,23,25)           109.8702         estimate D2E/DX2                !
 ! A44   A(17,23,26)           112.1176         estimate D2E/DX2                !
 ! A45   A(17,23,27)           109.4493         estimate D2E/DX2                !
 ! A46   A(25,23,26)           107.5228         estimate D2E/DX2                !
 ! A47   A(25,23,27)           107.371          estimate D2E/DX2                !
 ! A48   A(26,23,27)           110.3817         estimate D2E/DX2                !
 ! D1    D(9,1,2,3)            179.1924         estimate D2E/DX2                !
 ! D2    D(9,1,2,4)              0.248          estimate D2E/DX2                !
 ! D3    D(10,1,2,3)            -1.9004         estimate D2E/DX2                !
 ! D4    D(10,1,2,4)           179.1552         estimate D2E/DX2                !
 ! D5    D(2,1,9,7)             -0.0407         estimate D2E/DX2                !
 ! D6    D(2,1,9,21)           179.6066         estimate D2E/DX2                !
 ! D7    D(10,1,9,7)          -179.0069         estimate D2E/DX2                !
 ! D8    D(10,1,9,21)            0.6404         estimate D2E/DX2                !
 ! D9    D(2,1,10,11)          177.7226         estimate D2E/DX2                !
 ! D10   D(2,1,10,12)          -52.6604         estimate D2E/DX2                !
 ! D11   D(2,1,10,13)           63.3427         estimate D2E/DX2                !
 ! D12   D(9,1,10,11)           -3.3598         estimate D2E/DX2                !
 ! D13   D(9,1,10,12)          126.2572         estimate D2E/DX2                !
 ! D14   D(9,1,10,13)         -117.7397         estimate D2E/DX2                !
 ! D15   D(1,2,4,5)            179.5082         estimate D2E/DX2                !
 ! D16   D(1,2,4,6)              0.0588         estimate D2E/DX2                !
 ! D17   D(3,2,4,5)              0.5256         estimate D2E/DX2                !
 ! D18   D(3,2,4,6)           -178.9239         estimate D2E/DX2                !
 ! D19   D(2,4,6,7)             -0.5635         estimate D2E/DX2                !
 ! D20   D(2,4,6,16)          -178.1861         estimate D2E/DX2                !
 ! D21   D(5,4,6,7)            179.9835         estimate D2E/DX2                !
 ! D22   D(5,4,6,16)             2.3609         estimate D2E/DX2                !
 ! D23   D(4,6,7,8)           -177.4787         estimate D2E/DX2                !
 ! D24   D(4,6,7,9)              0.7714         estimate D2E/DX2                !
 ! D25   D(16,6,7,8)             0.1685         estimate D2E/DX2                !
 ! D26   D(16,6,7,9)           178.4185         estimate D2E/DX2                !
 ! D27   D(4,6,16,17)         -162.0892         estimate D2E/DX2                !
 ! D28   D(4,6,16,19)          -10.2934         estimate D2E/DX2                !
 ! D29   D(7,6,16,17)           20.3013         estimate D2E/DX2                !
 ! D30   D(7,6,16,19)          172.0971         estimate D2E/DX2                !
 ! D31   D(6,7,8,18)            -2.1868         estimate D2E/DX2                !
 ! D32   D(6,7,8,20)           174.1356         estimate D2E/DX2                !
 ! D33   D(9,7,8,18)           179.5631         estimate D2E/DX2                !
 ! D34   D(9,7,8,20)            -4.1145         estimate D2E/DX2                !
 ! D35   D(6,7,9,1)             -0.4692         estimate D2E/DX2                !
 ! D36   D(6,7,9,21)           179.8804         estimate D2E/DX2                !
 ! D37   D(8,7,9,1)            177.7611         estimate D2E/DX2                !
 ! D38   D(8,7,9,21)            -1.8893         estimate D2E/DX2                !
 ! D39   D(7,8,18,17)          -16.7351         estimate D2E/DX2                !
 ! D40   D(7,8,18,22)         -179.5046         estimate D2E/DX2                !
 ! D41   D(20,8,18,17)         166.8937         estimate D2E/DX2                !
 ! D42   D(20,8,18,22)           4.1243         estimate D2E/DX2                !
 ! D43   D(1,10,13,14)          57.5012         estimate D2E/DX2                !
 ! D44   D(1,10,13,15)         -69.1513         estimate D2E/DX2                !
 ! D45   D(11,10,13,14)        -57.0765         estimate D2E/DX2                !
 ! D46   D(11,10,13,15)        176.2709         estimate D2E/DX2                !
 ! D47   D(12,10,13,14)        175.2012         estimate D2E/DX2                !
 ! D48   D(12,10,13,15)         48.5487         estimate D2E/DX2                !
 ! D49   D(6,16,17,18)         -35.0714         estimate D2E/DX2                !
 ! D50   D(6,16,17,23)          91.0737         estimate D2E/DX2                !
 ! D51   D(6,16,17,24)        -153.4492         estimate D2E/DX2                !
 ! D52   D(19,16,17,18)        172.5953         estimate D2E/DX2                !
 ! D53   D(19,16,17,23)        -61.2597         estimate D2E/DX2                !
 ! D54   D(19,16,17,24)         54.2175         estimate D2E/DX2                !
 ! D55   D(16,17,18,8)          34.1181         estimate D2E/DX2                !
 ! D56   D(16,17,18,22)       -163.2701         estimate D2E/DX2                !
 ! D57   D(23,17,18,8)         -90.9118         estimate D2E/DX2                !
 ! D58   D(23,17,18,22)         71.7            estimate D2E/DX2                !
 ! D59   D(24,17,18,8)         152.4428         estimate D2E/DX2                !
 ! D60   D(24,17,18,22)        -44.9454         estimate D2E/DX2                !
 ! D61   D(16,17,23,25)         55.5254         estimate D2E/DX2                !
 ! D62   D(16,17,23,26)        -63.9766         estimate D2E/DX2                !
 ! D63   D(16,17,23,27)        173.1897         estimate D2E/DX2                !
 ! D64   D(18,17,23,25)        179.6867         estimate D2E/DX2                !
 ! D65   D(18,17,23,26)         60.1846         estimate D2E/DX2                !
 ! D66   D(18,17,23,27)        -62.649          estimate D2E/DX2                !
 ! D67   D(24,17,23,25)        -61.8279         estimate D2E/DX2                !
 ! D68   D(24,17,23,26)        178.6701         estimate D2E/DX2                !
 ! D69   D(24,17,23,27)         55.8364         estimate D2E/DX2                !
 --------------------------------------------------------------------------------
 Trust Radius=3.00D-01 FncErr=1.00D-07 GrdErr=1.00D-06 EigMax=2.50D+02 EigMin=1.00D-04
 Number of steps in this run=    155 maximum allowed number of steps=    162.
 GradGradGradGradGradGradGradGradGradGradGradGradGradGradGradGradGradGrad

                          Input orientation:                          
 ---------------------------------------------------------------------
 Center     Atomic      Atomic             Coordinates (Angstroms)
 Number     Number       Type             X           Y           Z
 ---------------------------------------------------------------------
      1          6           0       -1.554672    1.033391   -0.837600
      2          6           0       -2.689837    0.783332   -1.630808
      3         17           0       -4.291518    0.835798   -0.953475
      4          6           0       -2.575848    0.466341   -2.968788
      5          1           0       -3.460335    0.268204   -3.566250
      6          6           0       -1.300798    0.389055   -3.556657
      7          6           0       -0.162760    0.648984   -2.769447
      8          6           0        1.174372    0.622678   -3.401396
      9          6           0       -0.296864    0.962157   -1.424540
     10         16           0       -1.644935    1.466865    0.884420
     11          8           0       -0.266281    1.587392    1.352972
     12          8           0       -2.551173    2.602903    1.042402
     13          7           0       -2.310195    0.222654    1.735467
     14          1           0       -1.786333   -0.647959    1.622669
     15          1           0       -3.300786    0.087202    1.529716
     16          7           0       -1.158447    0.113718   -4.886328
     17          6           0        0.100385   -0.341808   -5.424135
     18          7           0        1.189843    0.294889   -4.720274
     19          1           0       -1.985253   -0.188431   -5.393957
     20          8           0        2.204697    0.942613   -2.801658
     21          1           0        0.592398    1.157387   -0.833847
     22          1           0        2.105191    0.266359   -5.162260
     23          6           0        0.188551   -1.885340   -5.417414
     24          1           0        0.151288   -0.053191   -6.476913
     25          1           0       -0.659674   -2.307217   -5.956477
     26         17           0        0.159352   -2.552205   -3.764132
     27         17           0        1.671892   -2.400214   -6.269949
 ---------------------------------------------------------------------
                    Distance matrix (angstroms):
                    1          2          3          4          5
     1  C    0.000000
     2  C    1.407235   0.000000
     3  Cl   2.746415   1.739802   0.000000
     4  C    2.430290   1.379734   2.672359   0.000000
     5  H    3.415055   2.145917   2.799932   1.085604   0.000000
     6  C    2.805867   2.407027   3.990055   1.406171   2.162937
     7  C    2.411891   2.775007   4.514343   2.428186   3.413779
     8  C    3.766884   4.253576   5.992803   3.778326   4.651166
     9  C    1.389839   2.408495   4.024317   2.797196   3.882788
    10  S    1.778032   2.808097   3.283368   4.088381   4.953880
    11  O    2.601053   3.927224   4.699695   5.026776   6.011738
    12  O    2.644010   3.236684   3.183550   4.544794   5.245672
    13  N    2.801568   3.433700   3.395880   4.718048   5.425229
    14  H    2.988901   3.667428   3.887674   4.790248   5.528700
    15  H    3.090044   3.293443   2.776361   4.572288   5.101675
    16  N    4.170730   3.659501   5.079849   2.410463   2.658037
    17  C    5.066230   4.841550   6.376705   3.720761   4.062337
    18  N    4.811746   4.983502   6.672831   4.156625   4.791309
    19  H    4.736944   3.949943   5.107424   2.580498   2.392675
    20  O    4.242478   5.035149   6.754850   4.807118   5.756042
    21  H    2.150650   3.398254   4.895953   3.882435   4.968030
    22  H    5.717133   5.977517   7.678281   5.173339   5.789847
    23  C    5.703728   5.453926   6.884937   4.378136   4.623735
    24  H    5.991061   5.679480   7.144032   4.473715   4.649632
    25  H    6.177668   5.690735   6.935334   4.504512   4.493292
    26  Cl   4.935480   4.877987   6.260080   4.150363   4.593038
    27  Cl   7.191020   7.119078   8.619682   6.095744   6.385154
                    6          7          8          9         10
     6  C    0.000000
     7  C    1.407974   0.000000
     8  C    2.491015   1.479181   0.000000
     9  C    2.425335   1.387384   2.487517   0.000000
    10  S    4.582932   4.026973   5.198976   2.720905   0.000000
    11  O    5.158556   4.229145   5.060649   2.847180   1.461081
    12  O    5.255084   4.904335   6.127668   3.722870   1.461782
    13  N    5.390097   5.008741   6.220095   3.819164   1.647700
    14  H    5.304391   4.858882   5.968377   3.754527   2.244435
    15  H    5.473779   5.352159   6.680542   4.303106   2.249827
    16  N    1.365320   2.399809   2.811780   3.666899   5.947201
    17  C    2.446416   2.845748   2.484986   4.225504   6.790825
    18  N    2.750666   2.400134   1.359090   3.676602   6.389216
    19  H    2.043927   3.303149   3.822490   4.464390   6.501833
    20  O    3.628353   2.385815   1.234347   2.855634   5.355528
    21  H    3.404147   2.138992   2.686431   1.085274   2.837935
    22  H    3.767462   3.318969   2.023371   4.497171   7.215746
    23  C    3.294457   3.682112   3.365461   4.928175   7.369671
    24  H    3.291205   3.786420   3.310938   5.172837   7.728273
    25  H    3.666068   4.375295   4.298424   5.599900   7.874788
    26  Cl   3.290303   3.367605   3.352868   4.246476   6.404483
    27  Cl   4.896821   4.991700   4.196903   6.217678   8.782974
                   11         12         13         14         15
    11  O    0.000000
    12  O    2.519613   0.000000
    13  N    2.487247   2.490783   0.000000
    14  H    2.716632   3.389660   1.022312   0.000000
    15  H    3.389695   2.669860   1.020761   1.686022   0.000000
    16  N    6.472754   6.579177   6.722095   6.583421   6.764314
    17  C    7.055880   7.584074   7.575580   7.301430   7.752939
    18  N    6.377710   7.247797   7.343846   7.069619   7.698783
    19  H    7.185365   7.038361   7.148655   7.034470   7.052931
    20  O    4.876723   6.336534   6.441125   6.167083   7.057115
    21  H    2.388391   3.935970   3.987498   3.866795   4.678526
    22  H    7.058134   8.101789   8.190005   7.874972   8.604605
    23  C    7.622655   8.329444   7.864546   7.415797   8.020537
    24  H    8.010804   8.420109   8.577772   8.349332   8.720243
    25  H    8.291609   8.756218   8.263804   7.840022   8.291670
    26  Cl   6.595619   7.551480   6.636573   6.035683   6.853018
    27  Cl   8.818528   9.815087   9.317893   8.793357   9.578598
                   16         17         18         19         20
    16  N    0.000000
    17  C    1.442705   0.000000
    18  N    2.361114   1.444895   0.000000
    19  H    1.016164   2.091488   3.281567   0.000000
    20  O    4.042728   3.599341   2.265075   5.055191   0.000000
    21  H    4.536221   4.853906   4.025563   5.408337   2.553021
    22  H    3.278836   2.111324   1.016871   4.122165   2.457572
    23  C    2.468337   1.546062   2.498397   2.757802   4.347913
    24  H    2.067178   1.092809   2.070154   2.399144   4.326155
    25  H    2.693495   2.173456   3.423428   2.561804   5.359001
    26  Cl   3.178531   2.764949   3.175226   3.583725   4.162156
    27  Cl   4.030518   2.724347   3.146020   4.362803   4.846382
                   21         22         23         24         25
    21  H    0.000000
    22  H    4.670935   0.000000
    23  C    5.516373   2.892822   0.000000
    24  H    5.788287   2.376586   2.116765   0.000000
    25  H    6.309714   3.859864   1.089978   2.451356   0.000000
    26  Cl   4.747122   3.699371   1.782948   3.688403   2.353125
    27  Cl   6.585821   2.919817   1.786676   2.804208   2.354381
                   26         27
    26  Cl   0.000000
    27  Cl   2.930869   0.000000
 Stoichiometry    C9H8Cl3N3O3S
 Framework group  C1[X(C9H8Cl3N3O3S)]
 Deg. of freedom    75
 Full point group                 C1      NOp   1
 Largest Abelian subgroup         C1      NOp   1
 Largest concise Abelian subgroup C1      NOp   1
                         Standard orientation:                         
 ---------------------------------------------------------------------
 Center     Atomic      Atomic             Coordinates (Angstroms)
 Number     Number       Type             X           Y           Z
 ---------------------------------------------------------------------
      1          6           0       -1.974572    0.179317   -0.155672
      2          6           0       -1.762301   -1.199054   -0.343675
      3         17           0       -3.055974   -2.345211   -0.144563
      4          6           0       -0.517713   -1.696274   -0.671453
      5          1           0       -0.367459   -2.763032   -0.805570
      6          6           0        0.564912   -0.811430   -0.820756
      7          6           0        0.354877    0.569544   -0.644149
      8          6           0        1.481112    1.504701   -0.856404
      9          6           0       -0.902943    1.050670   -0.310620
     10         16           0       -3.560575    0.875575    0.245847
     11          8           0       -3.351560    2.312305    0.409784
     12          8           0       -4.546071    0.407154   -0.726874
     13          7           0       -4.056866    0.315094    1.713659
     14          1           0       -3.386248    0.525696    2.455979
     15          1           0       -4.292438   -0.678008    1.699284
     16          7           0        1.799517   -1.270125   -1.180545
     17          6           0        2.982920   -0.471763   -0.971799
     18          7           0        2.669634    0.924788   -1.169834
     19          1           0        1.945160   -2.275796   -1.178784
     20          8           0        1.348009    2.731408   -0.823434
     21          1           0       -1.044470    2.118327   -0.176834
     22          1           0        3.452220    1.558754   -1.310099
     23          6           0        3.622501   -0.764597    0.404970
     24          1           0        3.733717   -0.767165   -1.708869
     25          1           0        3.830349   -1.830548    0.497717
     26         17           0        2.550328   -0.307350    1.754146
     27         17           0        5.183092    0.096129    0.531135
 ---------------------------------------------------------------------
 Rotational constants (GHZ):           0.5720570           0.1417992           0.1300629
 General basis read from cards:  (6D, 7F)
 There are   393 symmetry adapted cartesian basis functions of A   symmetry.
 There are   393 symmetry adapted basis functions of A   symmetry.
   393 basis functions,   736 primitive gaussians,   393 cartesian basis functions
    87 alpha electrons       87 beta electrons
       nuclear repulsion energy      2078.4018921355 Hartrees.
 NAtoms=   27 NActive=   27 NUniq=   27 SFac= 1.00D+00 NAtFMM=   60 NAOKFM=F Big=F
 Integral buffers will be    131072 words long.
 Raffenetti 2 integral format.
 Two-electron integral symmetry is turned on.
 One-electron integrals computed using PRISM.
 NBasis=   393 RedAO= T EigKep=  1.12D-06  NBF=   393
 NBsUse=   391 1.00D-06 EigRej=  6.95D-07 NBFU=   391
 ExpMin= 4.05D-02 ExpMax= 2.52D+04 ExpMxC= 3.78D+03 IAcc=3 IRadAn=         5 AccDes= 0.00D+00
 Harris functional with IExCor= 1009 and IRadAn=       5 diagonalized for initial guess.
 HarFok:  IExCor= 1009 AccDes= 0.00D+00 IRadAn=         5 IDoV= 1 UseB2=F ITyADJ=14
 ICtDFT=  3500011 ScaDFX=  1.000000  1.000000  1.000000  1.000000
 FoFCou: FMM=F IPFlag=           0 FMFlag=      100000 FMFlg1=           0
         NFxFlg=           0 DoJE=T BraDBF=F KetDBF=T FulRan=T
         wScrn=  0.000000 ICntrl=       500 IOpCl=  0 I1Cent=   200000004 NGrid=           0
         NMat0=    1 NMatS0=      1 NMatT0=    0 NMatD0=    1 NMtDS0=    0 NMtDT0=    0
 Petite list used in FoFCou.
 Requested convergence on RMS density matrix=1.00D-08 within 128 cycles.
 Requested convergence on MAX density matrix=1.00D-06.
 Requested convergence on             energy=1.00D-06.
 No special actions if energy rises.
 SCF Done:  E(RM062X) =  -2516.03718938     A.U. after   17 cycles
            NFock= 17  Conv=0.78D-08     -V/T= 2.0045

 **********************************************************************

            Population analysis using the SCF Density.

 **********************************************************************

 Orbital symmetries:
       Occupied  (A) (A) (A) (A) (A) (A) (A) (A) (A) (A) (A) (A)
                 (A) (A) (A) (A) (A) (A) (A) (A) (A) (A) (A) (A)
                 (A) (A) (A) (A) (A) (A) (A) (A) (A) (A) (A) (A)
                 (A) (A) (A) (A) (A) (A) (A) (A) (A) (A) (A) (A)
                 (A) (A) (A) (A) (A) (A) (A) (A) (A) (A) (A) (A)
                 (A) (A) (A) (A) (A) (A) (A) (A) (A) (A) (A) (A)
                 (A) (A) (A) (A) (A) (A) (A) (A) (A) (A) (A) (A)
                 (A) (A) (A)
       Virtual   (A) (A) (A) (A) (A) (A) (A) (A) (A) (A) (A) (A)
                 (A) (A) (A) (A) (A) (A) (A) (A) (A) (A) (A) (A)
                 (A) (A) (A) (A) (A) (A) (A) (A) (A) (A) (A) (A)
                 (A) (A) (A) (A) (A) (A) (A) (A) (A) (A) (A) (A)
                 (A) (A) (A) (A) (A) (A) (A) (A) (A) (A) (A) (A)
                 (A) (A) (A) (A) (A) (A) (A) (A) (A) (A) (A) (A)
                 (A) (A) (A) (A) (A) (A) (A) (A) (A) (A) (A) (A)
                 (A) (A) (A) (A) (A) (A) (A) (A) (A) (A) (A) (A)
                 (A) (A) (A) (A) (A) (A) (A) (A) (A) (A) (A) (A)
                 (A) (A) (A) (A) (A) (A) (A) (A) (A) (A) (A) (A)
                 (A) (A) (A) (A) (A) (A) (A) (A) (A) (A) (A) (A)
                 (A) (A) (A) (A) (A) (A) (A) (A) (A) (A) (A) (A)
                 (A) (A) (A) (A) (A) (A) (A) (A) (A) (A) (A) (A)
                 (A) (A) (A) (A) (A) (A) (A) (A) (A) (A) (A) (A)
                 (A) (A) (A) (A) (A) (A) (A) (A) (A) (A) (A) (A)
                 (A) (A) (A) (A) (A) (A) (A) (A) (A) (A) (A) (A)
                 (A) (A) (A) (A) (A) (A) (A) (A) (A) (A) (A) (A)
                 (A) (A) (A) (A) (A) (A) (A) (A) (A) (A) (A) (A)
                 (A) (A) (A) (A) (A) (A) (A) (A) (A) (A) (A) (A)
                 (A) (A) (A) (A) (A) (A) (A) (A) (A) (A) (A) (A)
                 (A) (A) (A) (A) (A) (A) (A) (A) (A) (A) (A) (A)
                 (A) (A) (A) (A) (A) (A) (A) (A) (A) (A) (A) (A)
                 (A) (A) (A) (A) (A) (A) (A) (A) (A) (A) (A) (A)
                 (A) (A) (A) (A) (A) (A) (A) (A) (A) (A) (A) (A)
                 (A) (A) (A) (A) (A) (A) (A) (A) (A) (A) (A) (A)
                 (A) (A) (A) (A)
 The electronic state is 1-A.
 Alpha  occ. eigenvalues -- -102.70821-102.70574-102.70544 -90.17189 -19.64125
 Alpha  occ. eigenvalues --  -19.63946 -19.63489 -14.84334 -14.82746 -14.80999
 Alpha  occ. eigenvalues --  -10.71051 -10.69724 -10.68658 -10.66646 -10.65632
 Alpha  occ. eigenvalues --  -10.61260 -10.60244 -10.60162 -10.59532  -9.85518
 Alpha  occ. eigenvalues --   -9.85223  -9.85185  -8.48083  -7.57928  -7.57643
 Alpha  occ. eigenvalues --   -7.57594  -7.57235  -7.57219  -7.56936  -7.56929
 Alpha  occ. eigenvalues --   -7.56920  -7.56887  -6.40305  -6.40234  -6.40188
 Alpha  occ. eigenvalues --   -1.24356  -1.18664  -1.14103  -1.12409  -1.06333
 Alpha  occ. eigenvalues --   -1.03842  -1.03496  -1.02923  -0.97555  -0.95399
 Alpha  occ. eigenvalues --   -0.91296  -0.88588  -0.85110  -0.77850  -0.76939
 Alpha  occ. eigenvalues --   -0.75859  -0.73022  -0.69003  -0.66052  -0.65900
 Alpha  occ. eigenvalues --   -0.63061  -0.62328  -0.61415  -0.59873  -0.58129
 Alpha  occ. eigenvalues --   -0.56952  -0.56030  -0.55924  -0.54843  -0.52944
 Alpha  occ. eigenvalues --   -0.52472  -0.51453  -0.51421  -0.50171  -0.49772
 Alpha  occ. eigenvalues --   -0.46346  -0.45793  -0.43317  -0.42508  -0.42145
 Alpha  occ. eigenvalues --   -0.41577  -0.40872  -0.40604  -0.39890  -0.39524
 Alpha  occ. eigenvalues --   -0.38815  -0.38127  -0.37356  -0.35894  -0.35246
 Alpha  occ. eigenvalues --   -0.33868  -0.30280
 Alpha virt. eigenvalues --   -0.04647  -0.02980  -0.02245  -0.00817  -0.00100
 Alpha virt. eigenvalues --    0.01003   0.01295   0.01844   0.02309   0.02565
 Alpha virt. eigenvalues --    0.03423   0.04251   0.04496   0.05136   0.05620
 Alpha virt. eigenvalues --    0.06073   0.06437   0.07113   0.07236   0.08155
 Alpha virt. eigenvalues --    0.08631   0.08800   0.09007   0.09129   0.09722
 Alpha virt. eigenvalues --    0.09984   0.10238   0.10498   0.11065   0.11510
 Alpha virt. eigenvalues --    0.12051   0.12491   0.12671   0.13022   0.13254
 Alpha virt. eigenvalues --    0.13528   0.13829   0.14624   0.14919   0.15293
 Alpha virt. eigenvalues --    0.15617   0.16051   0.16413   0.16846   0.17408
 Alpha virt. eigenvalues --    0.17843   0.18195   0.18316   0.18371   0.18707
 Alpha virt. eigenvalues --    0.19254   0.19928   0.20290   0.20614   0.20962
 Alpha virt. eigenvalues --    0.21730   0.21865   0.22057   0.22347   0.23076
 Alpha virt. eigenvalues --    0.23253   0.23826   0.24259   0.24924   0.25176
 Alpha virt. eigenvalues --    0.25591   0.25699   0.25830   0.26385   0.26957
 Alpha virt. eigenvalues --    0.27296   0.27788   0.27893   0.29111   0.29668
 Alpha virt. eigenvalues --    0.29856   0.30622   0.30956   0.31938   0.32141
 Alpha virt. eigenvalues --    0.32450   0.33330   0.33504   0.33967   0.34955
 Alpha virt. eigenvalues --    0.35244   0.35922   0.36661   0.37059   0.37269
 Alpha virt. eigenvalues --    0.38018   0.38456   0.39060   0.40098   0.40767
 Alpha virt. eigenvalues --    0.41564   0.41982   0.43291   0.43416   0.47143
 Alpha virt. eigenvalues --    0.47352   0.49362   0.50391   0.52388   0.54109
 Alpha virt. eigenvalues --    0.56900   0.58780   0.58820   0.59501   0.61725
 Alpha virt. eigenvalues --    0.61969   0.63278   0.63990   0.64376   0.65110
 Alpha virt. eigenvalues --    0.65769   0.65950   0.67828   0.68286   0.69285
 Alpha virt. eigenvalues --    0.69719   0.70489   0.72276   0.72682   0.72856
 Alpha virt. eigenvalues --    0.73239   0.74929   0.75418   0.76638   0.77838
 Alpha virt. eigenvalues --    0.78203   0.79488   0.80157   0.81356   0.81755
 Alpha virt. eigenvalues --    0.83657   0.84365   0.86294   0.86641   0.86804
 Alpha virt. eigenvalues --    0.89079   0.89863   0.91072   0.91933   0.92908
 Alpha virt. eigenvalues --    0.93116   0.93506   0.94175   0.95312   0.95837
 Alpha virt. eigenvalues --    0.97004   0.98174   0.99406   0.99932   1.00957
 Alpha virt. eigenvalues --    1.02198   1.02698   1.02987   1.04825   1.05356
 Alpha virt. eigenvalues --    1.05822   1.06993   1.07376   1.07794   1.09092
 Alpha virt. eigenvalues --    1.11066   1.11683   1.12526   1.13686   1.13917
 Alpha virt. eigenvalues --    1.14316   1.14719   1.16112   1.17092   1.17882
 Alpha virt. eigenvalues --    1.18037   1.18459   1.20125   1.21241   1.23494
 Alpha virt. eigenvalues --    1.23809   1.25245   1.26985   1.27215   1.29021
 Alpha virt. eigenvalues --    1.30804   1.32357   1.34574   1.35770   1.36582
 Alpha virt. eigenvalues --    1.38395   1.39130   1.39611   1.40635   1.41543
 Alpha virt. eigenvalues --    1.41606   1.42290   1.42775   1.44516   1.46233
 Alpha virt. eigenvalues --    1.46651   1.47526   1.49369   1.51002   1.52140
 Alpha virt. eigenvalues --    1.53889   1.54309   1.54911   1.56684   1.60864
 Alpha virt. eigenvalues --    1.61466   1.65838   1.66367   1.70431   1.71056
 Alpha virt. eigenvalues --    1.75335   1.77107   1.77517   1.79600   1.80016
 Alpha virt. eigenvalues --    1.80509   1.82006   1.83764   1.84143   1.86812
 Alpha virt. eigenvalues --    1.88335   1.89610   1.91208   1.91784   1.93105
 Alpha virt. eigenvalues --    1.93641   1.95486   1.97039   1.99861   2.00079
 Alpha virt. eigenvalues --    2.00927   2.01310   2.03666   2.05139   2.07962
 Alpha virt. eigenvalues --    2.10484   2.12042   2.13370   2.15007   2.16424
 Alpha virt. eigenvalues --    2.18298   2.19016   2.19621   2.21652   2.21783
 Alpha virt. eigenvalues --    2.23089   2.24133   2.26342   2.27129   2.29305
 Alpha virt. eigenvalues --    2.32579   2.36841   2.37281   2.41449   2.42624
 Alpha virt. eigenvalues --    2.45187   2.49853   2.50428   2.54305   2.55853
 Alpha virt. eigenvalues --    2.57516   2.59594   2.60798   2.66552   2.68646
 Alpha virt. eigenvalues --    2.71048   2.73043   2.74368   2.77982   2.83234
 Alpha virt. eigenvalues --    2.85551   2.90525   2.93828   2.95266   2.97318
 Alpha virt. eigenvalues --    2.99957   3.12298   3.21480   3.33052   3.39282
 Alpha virt. eigenvalues --    3.90851   4.06815   4.08541   4.22900   4.24748
 Alpha virt. eigenvalues --    4.26294   4.30072   4.32102   4.33987   4.37389
 Alpha virt. eigenvalues --    4.41280   4.43090   4.45024   4.48020   4.49339
 Alpha virt. eigenvalues --    4.52164   4.56856   4.72488   4.86728
          Condensed to atoms (all electrons):
               1          2          3          4          5          6
     1  C   58.103410  -7.915596   0.332756  -3.877142   0.045872   4.109082
     2  C   -7.915596  40.287866  -0.962431 -11.875446   0.034051   4.173392
     3  Cl   0.332756  -0.962431  17.079873   0.245125  -0.006845  -0.340094
     4  C   -3.877142 -11.875446   0.245125  29.591223   0.172461 -11.165379
     5  H    0.045872   0.034051  -0.006845   0.172461   0.468059  -0.032858
     6  C    4.109082   4.173392  -0.340094 -11.165379  -0.032858  32.753282
     7  C  -11.356172  -2.934468   0.100076  -7.670748   0.095146  -9.499999
     8  C  -11.955010   1.170389   0.039241   2.670316   0.009801  -6.037551
     9  C  -15.822184 -16.747904   0.412612   8.441947  -0.022394  -8.709575
    10  S   -0.557025  -0.696736  -0.054016   1.243060  -0.000120   0.935929
    11  O   -0.914101  -0.446446   0.005742   0.124044   0.000023  -0.007353
    12  O   -0.277194   0.247959  -0.118440   0.040194  -0.000006   0.187726
    13  N   -0.557279  -0.302270   0.016612   0.027082  -0.000150  -0.048291
    14  H   -0.048626   0.084254  -0.004629  -0.000548   0.000000   0.012900
    15  H   -0.039235  -0.017773   0.015004   0.016338   0.000001   0.006550
    16  N   -0.192984   0.342769  -0.000609   0.242688  -0.008279  -1.195467
    17  C   -0.672465   0.197390  -0.013960  -0.452069   0.012632   0.334969
    18  N   -0.363328   0.184074   0.000807   0.037830   0.000139   0.365985
    19  H    0.004197   0.035110  -0.000289  -0.070880   0.005091  -0.028461
    20  O    0.150966  -0.024948   0.000089   0.003627   0.000016   0.037829
    21  H   -0.046380   0.013462  -0.000200  -0.019652   0.000011  -0.016357
    22  H    0.007879  -0.002500   0.000009   0.001240  -0.000000  -0.028923
    23  C    0.790084  -0.266596   0.000191  -0.674793  -0.003829   0.216563
    24  H   -0.006155   0.004423   0.000009   0.006404   0.000001   0.007255
    25  H   -0.002941  -0.001776   0.000001   0.008061   0.000001   0.021671
    26  Cl  -0.393387   0.146981   0.000200   0.162298   0.001094  -0.342698
    27  Cl  -0.031302   0.002244   0.000079   0.102753  -0.000026   0.029300
               7          8          9         10         11         12
     1  C  -11.356172 -11.955010 -15.822184  -0.557025  -0.914101  -0.277194
     2  C   -2.934468   1.170389 -16.747904  -0.696736  -0.446446   0.247959
     3  Cl   0.100076   0.039241   0.412612  -0.054016   0.005742  -0.118440
     4  C   -7.670748   2.670316   8.441947   1.243060   0.124044   0.040194
     5  H    0.095146   0.009801  -0.022394  -0.000120   0.000023  -0.000006
     6  C   -9.499999  -6.037551  -8.709575   0.935929  -0.007353   0.187726
     7  C   40.651597  -6.965718   4.410477  -2.840472  -0.001977  -0.320196
     8  C   -6.965718  24.336498   3.254423  -0.953596  -0.045215  -0.066405
     9  C    4.410477   3.254423  31.428027  -0.997661   0.736070  -0.361369
    10  S   -2.840472  -0.953596  -0.997661  17.636517   0.522887   0.682309
    11  O   -0.001977  -0.045215   0.736070   0.522887   8.803131  -0.133531
    12  O   -0.320196  -0.066405  -0.361369   0.682309  -0.133531   8.678413
    13  N    0.340298   0.027231   0.560424  -0.511094  -0.085729  -0.156784
    14  H   -0.058292  -0.005228  -0.104646   0.137067  -0.005715   0.012287
    15  H   -0.018026  -0.001343  -0.014493   0.071877   0.012537  -0.000870
    16  N    0.210068   0.661197  -0.051990  -0.003896   0.000137  -0.000204
    17  C    0.278870  -0.917202  -0.452364  -0.044514  -0.001877   0.000744
    18  N   -0.987456   0.467793   0.228992  -0.020176  -0.000921  -0.000504
    19  H    0.042714   0.023678  -0.003991   0.000029   0.000000   0.000000
    20  O    0.028616   0.149358  -0.111014   0.008764   0.001084   0.000054
    21  H    0.019885   0.007446   0.350926  -0.018980  -0.001263  -0.000623
    22  H    0.145975  -0.099906   0.004971   0.000051   0.000001  -0.000000
    23  C    1.643130  -1.094394   0.002140   0.023694   0.000677   0.000309
    24  H   -0.044971   0.016664  -0.009444  -0.000007  -0.000000   0.000000
    25  H   -0.033457   0.003313   0.004572  -0.000028  -0.000000  -0.000000
    26  Cl  -0.191058   0.389426  -0.019211  -0.015773  -0.000644  -0.000300
    27  Cl  -0.259705   0.164920  -0.002045   0.000241   0.000006  -0.000002
              13         14         15         16         17         18
     1  C   -0.557279  -0.048626  -0.039235  -0.192984  -0.672465  -0.363328
     2  C   -0.302270   0.084254  -0.017773   0.342769   0.197390   0.184074
     3  Cl   0.016612  -0.004629   0.015004  -0.000609  -0.013960   0.000807
     4  C    0.027082  -0.000548   0.016338   0.242688  -0.452069   0.037830
     5  H   -0.000150   0.000000   0.000001  -0.008279   0.012632   0.000139
     6  C   -0.048291   0.012900   0.006550  -1.195467   0.334969   0.365985
     7  C    0.340298  -0.058292  -0.018026   0.210068   0.278870  -0.987456
     8  C    0.027231  -0.005228  -0.001343   0.661197  -0.917202   0.467793
     9  C    0.560424  -0.104646  -0.014493  -0.051990  -0.452364   0.228992
    10  S   -0.511094   0.137067   0.071877  -0.003896  -0.044514  -0.020176
    11  O   -0.085729  -0.005715   0.012537   0.000137  -0.001877  -0.000921
    12  O   -0.156784   0.012287  -0.000870  -0.000204   0.000744  -0.000504
    13  N    8.130790   0.244287   0.228788  -0.000759   0.002572  -0.000131
    14  H    0.244287   0.314331  -0.022424  -0.000007  -0.000063  -0.000010
    15  H    0.228788  -0.022424   0.316068  -0.000018  -0.000035  -0.000003
    16  N   -0.000759  -0.000007  -0.000018   8.031258  -0.850447   0.030020
    17  C    0.002572  -0.000063  -0.000035  -0.850447  10.157059  -0.268683
    18  N   -0.000131  -0.000010  -0.000003   0.030020  -0.268683   8.049584
    19  H   -0.000001  -0.000000   0.000000   0.261722  -0.010865   0.007957
    20  O    0.000142   0.000001   0.000000  -0.013215   0.114877  -0.145057
    21  H    0.000417  -0.000030  -0.000010  -0.000745   0.002846   0.000694
    22  H    0.000000  -0.000000  -0.000000   0.010230  -0.065896   0.251251
    23  C   -0.001075   0.000066   0.000028  -0.129816  -1.987816  -0.416281
    24  H   -0.000000   0.000000   0.000000  -0.042795   0.511528  -0.051285
    25  H   -0.000000  -0.000000  -0.000000  -0.011897   0.009667   0.022296
    26  Cl   0.000915  -0.000137  -0.000042   0.174036   0.189334   0.141236
    27  Cl  -0.000039   0.000001  -0.000000   0.062871   0.078105   0.072749
              19         20         21         22         23         24
     1  C    0.004197   0.150966  -0.046380   0.007879   0.790084  -0.006155
     2  C    0.035110  -0.024948   0.013462  -0.002500  -0.266596   0.004423
     3  Cl  -0.000289   0.000089  -0.000200   0.000009   0.000191   0.000009
     4  C   -0.070880   0.003627  -0.019652   0.001240  -0.674793   0.006404
     5  H    0.005091   0.000016   0.000011  -0.000000  -0.003829   0.000001
     6  C   -0.028461   0.037829  -0.016357  -0.028923   0.216563   0.007255
     7  C    0.042714   0.028616   0.019885   0.145975   1.643130  -0.044971
     8  C    0.023678   0.149358   0.007446  -0.099906  -1.094394   0.016664
     9  C   -0.003991  -0.111014   0.350926   0.004971   0.002140  -0.009444
    10  S    0.000029   0.008764  -0.018980   0.000051   0.023694  -0.000007
    11  O    0.000000   0.001084  -0.001263   0.000001   0.000677  -0.000000
    12  O    0.000000   0.000054  -0.000623  -0.000000   0.000309   0.000000
    13  N   -0.000001   0.000142   0.000417   0.000000  -0.001075  -0.000000
    14  H   -0.000000   0.000001  -0.000030  -0.000000   0.000066   0.000000
    15  H    0.000000   0.000000  -0.000010  -0.000000   0.000028   0.000000
    16  N    0.261722  -0.013215  -0.000745   0.010230  -0.129816  -0.042795
    17  C   -0.010865   0.114877   0.002846  -0.065896  -1.987816   0.511528
    18  N    0.007957  -0.145057   0.000694   0.251251  -0.416281  -0.051285
    19  H    0.327518   0.000091   0.000003  -0.000026  -0.019808  -0.004812
    20  O    0.000091   8.293691   0.006475   0.006987  -0.002333  -0.000165
    21  H    0.000003   0.006475   0.380365  -0.000004  -0.000440  -0.000000
    22  H   -0.000026   0.006987  -0.000004   0.269500   0.023894  -0.004264
    23  C   -0.019808  -0.002333  -0.000440   0.023894   9.102709  -0.144988
    24  H   -0.004812  -0.000165  -0.000000  -0.004264  -0.144988   0.481698
    25  H    0.001341  -0.000015  -0.000000  -0.000071   0.239584  -0.002338
    26  Cl  -0.005672  -0.003766   0.000145  -0.007469  -0.554031   0.018971
    27  Cl   0.000463  -0.000188  -0.000007   0.005832  -0.407754   0.005327
              25         26         27
     1  C   -0.002941  -0.393387  -0.031302
     2  C   -0.001776   0.146981   0.002244
     3  Cl   0.000001   0.000200   0.000079
     4  C    0.008061   0.162298   0.102753
     5  H    0.000001   0.001094  -0.000026
     6  C    0.021671  -0.342698   0.029300
     7  C   -0.033457  -0.191058  -0.259705
     8  C    0.003313   0.389426   0.164920
     9  C    0.004572  -0.019211  -0.002045
    10  S   -0.000028  -0.015773   0.000241
    11  O   -0.000000  -0.000644   0.000006
    12  O   -0.000000  -0.000300  -0.000002
    13  N   -0.000000   0.000915  -0.000039
    14  H   -0.000000  -0.000137   0.000001
    15  H   -0.000000  -0.000042  -0.000000
    16  N   -0.011897   0.174036   0.062871
    17  C    0.009667   0.189334   0.078105
    18  N    0.022296   0.141236   0.072749
    19  H    0.001341  -0.005672   0.000463
    20  O   -0.000015  -0.003766  -0.000188
    21  H   -0.000000   0.000145  -0.000007
    22  H   -0.000071  -0.007469   0.005832
    23  C    0.239584  -0.554031  -0.407754
    24  H   -0.002338   0.018971   0.005327
    25  H    0.495277  -0.031113  -0.019839
    26  Cl  -0.031113  17.166419   0.073707
    27  Cl  -0.019839   0.073707  17.074569
 Mulliken charges:
               1
     1  C   -2.515740
     2  C    1.270530
     3  Cl   0.253090
     4  C   -1.330032
     5  H    0.230107
     6  C    0.260576
     7  C    1.215862
     8  C    0.749873
     9  C   -0.405295
    10  S    1.451670
    11  O   -0.561566
    12  O   -0.413567
    13  N   -0.915953
    14  H    0.445159
    15  H    0.447081
    16  N   -0.523868
    17  C   -0.152336
    18  N   -0.607576
    19  H    0.434892
    20  O   -0.501966
    21  H    0.322015
    22  H    0.481240
    23  C   -0.339114
    24  H    0.258946
    25  H    0.297694
    26  Cl   0.100536
    27  Cl   0.047742
 Sum of Mulliken charges =  -0.00000
 Mulliken charges with hydrogens summed into heavy atoms:
               1
     1  C   -2.515740
     2  C    1.270530
     3  Cl   0.253090
     4  C   -1.099926
     6  C    0.260576
     7  C    1.215862
     8  C    0.749873
     9  C   -0.083280
    10  S    1.451670
    11  O   -0.561566
    12  O   -0.413567
    13  N   -0.023712
    16  N   -0.088976
    17  C    0.106609
    18  N   -0.126335
    20  O   -0.501966
    23  C   -0.041420
    26  Cl   0.100536
    27  Cl   0.047742
 Electronic spatial extent (au):  <R**2>=           7876.4589
 Charge=              0.0000 electrons
 Dipole moment (field-independent basis, Debye):
    X=              7.2192    Y=             -8.4744    Z=              1.0573  Tot=             11.1826
 Quadrupole moment (field-independent basis, Debye-Ang):
   XX=           -151.4076   YY=           -144.8298   ZZ=           -134.6839
   XY=              3.0781   XZ=            -18.0439   YZ=              2.6946
 Traceless Quadrupole moment (field-independent basis, Debye-Ang):
   XX=             -7.7672   YY=             -1.1894   ZZ=              8.9565
   XY=              3.0781   XZ=            -18.0439   YZ=              2.6946
 Octapole moment (field-independent basis, Debye-Ang**2):
  XXX=            161.5946  YYY=            -71.7592  ZZZ=             27.8640  XYY=             29.2740
  XXY=            -68.2559  XXZ=             12.1546  XZZ=            -10.4906  YZZ=              0.3188
  YYZ=             -0.7049  XYZ=             13.2555
 Hexadecapole moment (field-independent basis, Debye-Ang**3):
 XXXX=          -8274.7483 YYYY=          -1639.2728 ZZZZ=           -784.8751 XXXY=            257.7499
 XXXZ=           -247.7103 YYYX=             -6.7088 YYYZ=             36.9401 ZZZX=            -52.0944
 ZZZY=              0.9466 XXYY=          -1550.0200 XXZZ=          -1399.9322 YYZZ=           -397.3496
 XXYZ=            -50.4582 YYXZ=              5.0017 ZZXY=             12.3961
 N-N= 2.078401892135D+03 E-N=-1.009928678533D+04  KE= 2.504811543994D+03
 Calling FoFJK, ICntrl=      2127 FMM=F ISym2X=0 I1Cent= 0 IOpClX= 0 NMat=1 NMatS=1 NMatT=0.
 ***** Axes restored to original set *****
 -------------------------------------------------------------------
 Center     Atomic                   Forces (Hartrees/Bohr)
 Number     Number              X              Y              Z
 -------------------------------------------------------------------
      1        6          -0.003940126   -0.004759774   -0.004720926
      2        6           0.000332814    0.001544769    0.005761434
      3       17           0.000431389   -0.000266381   -0.000464483
      4        6           0.004662916   -0.001597216   -0.005482753
      5        1          -0.001024146    0.000410635    0.001281562
      6        6          -0.002851048    0.004347327    0.014562617
      7        6          -0.005143106   -0.001040838   -0.003861497
      8        6           0.025286372    0.011089297    0.025633525
      9        6          -0.000264280   -0.000044335   -0.000010874
     10       16           0.010056528    0.033992443    0.015867802
     11        8          -0.008685385   -0.007943412   -0.007545539
     12        8           0.003118947   -0.013948972   -0.005561438
     13        7          -0.004771087   -0.013676800   -0.002531957
     14        1          -0.000494050    0.003397747    0.002249939
     15        1           0.001884231    0.001964943    0.000614373
     16        7          -0.000906482   -0.004043729   -0.012109035
     17        6           0.003467137    0.001997771    0.003827048
     18        7          -0.003144417   -0.005247020   -0.017696372
     19        1           0.002456660    0.002074794    0.002283191
     20        8          -0.020514374   -0.006845921   -0.012487779
     21        1           0.000804449    0.000484253    0.000485304
     22        1          -0.001633357   -0.000139321    0.002888890
     23        6           0.003861303   -0.004276565    0.003722217
     24        1           0.000392481    0.000916493   -0.002173799
     25        1           0.000046449   -0.001152109   -0.000372066
     26       17          -0.001388546    0.001379172   -0.003513445
     27       17          -0.002041270    0.001382748   -0.000645939
 -------------------------------------------------------------------
 Cartesian Forces:  Max     0.033992443 RMS     0.008095261

 GradGradGradGradGradGradGradGradGradGradGradGradGradGradGradGradGradGrad
 Berny optimization.
 FormGI is forming the generalized inverse of G from B-inverse, IUseBI=4.
 Internal  Forces:  Max     0.024966108 RMS     0.003465470
 Search for a local minimum.
 Step number   1 out of a maximum of  155
 All quantities printed in internal units (Hartrees-Bohrs-Radians)
 Mixed Optimization -- RFO/linear search
 Second derivative matrix not updated -- first step.
 ITU=  0
     Eigenvalues ---    0.00230   0.00661   0.01311   0.01504   0.01526
     Eigenvalues ---    0.01640   0.01706   0.01851   0.01892   0.01988
     Eigenvalues ---    0.02015   0.02066   0.02119   0.02156   0.02202
     Eigenvalues ---    0.02235   0.02240   0.04390   0.05215   0.05308
     Eigenvalues ---    0.05993   0.06600   0.07028   0.09234   0.10404
     Eigenvalues ---    0.13701   0.14520   0.15101   0.15999   0.16000
     Eigenvalues ---    0.16000   0.16000   0.16000   0.16481   0.17908
     Eigenvalues ---    0.19991   0.22306   0.23124   0.23455   0.23989
     Eigenvalues ---    0.24221   0.24833   0.24936   0.24983   0.24994
     Eigenvalues ---    0.24997   0.25000   0.27195   0.27507   0.27927
     Eigenvalues ---    0.27989   0.31496   0.33324   0.34490   0.34815
     Eigenvalues ---    0.35326   0.35365   0.36767   0.37951   0.40293
     Eigenvalues ---    0.42360   0.43000   0.43883   0.43971   0.44217
     Eigenvalues ---    0.44841   0.44956   0.45840   0.47107   0.48649
     Eigenvalues ---    0.49106   0.52601   0.89299   0.90865   0.91157
 RFO step:  Lambda=-4.75396657D-03 EMin= 2.30000000D-03
 Linear search not attempted -- first point.
 Iteration  1 RMS(Cart)=  0.03273160 RMS(Int)=  0.00043034
 Iteration  2 RMS(Cart)=  0.00075983 RMS(Int)=  0.00014392
 Iteration  3 RMS(Cart)=  0.00000024 RMS(Int)=  0.00014392
 Variable       Old X    -DE/DX   Delta X   Delta X   Delta X     New X
                                 (Linear)    (Quad)   (Total)
    R1        2.65929  -0.00317   0.00000  -0.00686  -0.00685   2.65243
    R2        2.62642   0.00059   0.00000   0.00136   0.00136   2.62778
    R3        3.35999   0.00386   0.00000   0.01360   0.01360   3.37360
    R4        3.28775  -0.00059   0.00000  -0.00183  -0.00183   3.28592
    R5        2.60732   0.00342   0.00000   0.00696   0.00696   2.61428
    R6        2.05149   0.00005   0.00000   0.00015   0.00015   2.05165
    R7        2.65728  -0.00229   0.00000  -0.00520  -0.00521   2.65207
    R8        2.66069  -0.00298   0.00000  -0.00733  -0.00735   2.65334
    R9        2.58008   0.01181   0.00000   0.02222   0.02223   2.60231
   R10        2.79525   0.00267   0.00000   0.00746   0.00745   2.80270
   R11        2.62178   0.00089   0.00000   0.00178   0.00178   2.62356
   R12        2.56831   0.01317   0.00000   0.02490   0.02490   2.59321
   R13        2.33258  -0.02497   0.00000  -0.02781  -0.02781   2.30477
   R14        2.05087   0.00101   0.00000   0.00282   0.00282   2.05369
   R15        2.76104  -0.01127   0.00000  -0.01230  -0.01230   2.74874
   R16        2.76237  -0.01337   0.00000  -0.01464  -0.01464   2.74773
   R17        3.11370   0.00781   0.00000   0.01796   0.01796   3.13166
   R18        1.93189  -0.00340   0.00000  -0.00764  -0.00764   1.92425
   R19        1.92896  -0.00221   0.00000  -0.00495  -0.00495   1.92400
   R20        2.72632   0.00178   0.00000   0.00476   0.00477   2.73109
   R21        1.92027  -0.00376   0.00000  -0.00827  -0.00827   1.91201
   R22        2.73046  -0.00407   0.00000  -0.00995  -0.00994   2.72051
   R23        2.92163   0.00269   0.00000   0.00946   0.00946   2.93109
   R24        2.06511   0.00235   0.00000   0.00673   0.00673   2.07184
   R25        1.92161  -0.00272   0.00000  -0.00601  -0.00601   1.91560
   R26        2.05976   0.00059   0.00000   0.00168   0.00168   2.06144
   R27        3.36928  -0.00375   0.00000  -0.01340  -0.01340   3.35589
   R28        3.37633  -0.00178   0.00000  -0.00645  -0.00645   3.36988
    A1        2.07474  -0.00019   0.00000  -0.00039  -0.00041   2.07434
    A2        2.15110   0.00068   0.00000   0.00240   0.00236   2.15346
    A3        2.05719  -0.00050   0.00000  -0.00225  -0.00229   2.05490
    A4        2.11510   0.00094   0.00000   0.00352   0.00351   2.11861
    A5        2.11857  -0.00085   0.00000  -0.00302  -0.00301   2.11556
    A6        2.04938  -0.00008   0.00000  -0.00048  -0.00048   2.04890
    A7        2.10402  -0.00204   0.00000  -0.01171  -0.01171   2.09232
    A8        2.08628   0.00062   0.00000   0.00250   0.00249   2.08877
    A9        2.09284   0.00142   0.00000   0.00925   0.00925   2.10209
   A10        2.08176   0.00022   0.00000   0.00053   0.00052   2.08228
   A11        2.10921   0.00075   0.00000   0.00362   0.00362   2.11283
   A12        2.09147  -0.00097   0.00000  -0.00411  -0.00410   2.08737
   A13        2.08118   0.00119   0.00000   0.00479   0.00478   2.08596
   A14        2.10080  -0.00014   0.00000  -0.00106  -0.00106   2.09974
   A15        2.10080  -0.00105   0.00000  -0.00372  -0.00372   2.09709
   A16        2.01437  -0.00160   0.00000  -0.00485  -0.00487   2.00950
   A17        2.14405   0.00139   0.00000   0.00503   0.00503   2.14908
   A18        2.12294   0.00020   0.00000   0.00014   0.00014   2.12308
   A19        2.10415   0.00035   0.00000   0.00151   0.00151   2.10566
   A20        2.09726  -0.00018   0.00000  -0.00083  -0.00085   2.09641
   A21        2.08176  -0.00017   0.00000  -0.00073  -0.00074   2.08102
   A22        1.85750  -0.00223   0.00000  -0.01672  -0.01712   1.84038
   A23        1.90245  -0.00138   0.00000  -0.01318  -0.01366   1.88880
   A24        1.91414  -0.00634   0.00000  -0.04402  -0.04476   1.86938
   A25        2.07855   0.00692   0.00000   0.06653   0.06652   2.14507
   A26        1.85212   0.00120   0.00000   0.00110   0.00024   1.85236
   A27        1.85534   0.00081   0.00000  -0.00163  -0.00247   1.85287
   A28        1.95971   0.00098   0.00000   0.01141   0.01134   1.97105
   A29        1.96916  -0.00143   0.00000  -0.00328  -0.00336   1.96580
   A30        1.94125   0.00134   0.00000   0.01705   0.01692   1.95817
   A31        2.11495   0.00109   0.00000   0.00833   0.00824   2.12319
   A32        2.05064  -0.00112   0.00000  -0.00286  -0.00304   2.04760
   A33        2.01512   0.00033   0.00000   0.00654   0.00642   2.02154
   A34        1.91472  -0.00095   0.00000  -0.00158  -0.00166   1.91306
   A35        1.94267   0.00139   0.00000   0.01261   0.01262   1.95530
   A36        1.89270   0.00016   0.00000  -0.00093  -0.00093   1.89177
   A37        1.97666   0.00012   0.00000   0.00274   0.00271   1.97938
   A38        1.89420   0.00004   0.00000  -0.00663  -0.00665   1.88755
   A39        1.83921  -0.00076   0.00000  -0.00709  -0.00708   1.83213
   A40        2.17781   0.00130   0.00000   0.00751   0.00751   2.18532
   A41        2.02507  -0.00197   0.00000  -0.01332  -0.01332   2.01174
   A42        2.04275   0.00070   0.00000   0.00501   0.00502   2.04777
   A43        1.91760   0.00124   0.00000   0.00326   0.00325   1.92085
   A44        1.95682   0.00041   0.00000   0.00532   0.00532   1.96214
   A45        1.91025  -0.00225   0.00000  -0.00700  -0.00702   1.90323
   A46        1.87663  -0.00110   0.00000  -0.00777  -0.00778   1.86885
   A47        1.87398  -0.00053   0.00000  -0.01084  -0.01086   1.86312
   A48        1.92652   0.00224   0.00000   0.01637   0.01636   1.94288
    D1        3.12750  -0.00007   0.00000  -0.00215  -0.00215   3.12535
    D2        0.00433  -0.00014   0.00000  -0.00385  -0.00385   0.00048
    D3       -0.03317  -0.00039   0.00000  -0.01728  -0.01730  -0.05047
    D4        3.12685  -0.00047   0.00000  -0.01898  -0.01900   3.10785
    D5       -0.00071   0.00008   0.00000   0.00286   0.00287   0.00216
    D6        3.13473  -0.00017   0.00000  -0.00601  -0.00599   3.12874
    D7       -3.12426   0.00037   0.00000   0.01713   0.01711  -3.10715
    D8        0.01118   0.00012   0.00000   0.00826   0.00825   0.01943
    D9        3.10184  -0.00300   0.00000  -0.03599  -0.03562   3.06622
   D10       -0.91910   0.00319   0.00000   0.02688   0.02655  -0.89255
   D11        1.10554  -0.00015   0.00000  -0.00708  -0.00712   1.09842
   D12       -0.05864  -0.00332   0.00000  -0.05096  -0.05060  -0.10924
   D13        2.20360   0.00287   0.00000   0.01190   0.01157   2.21518
   D14       -2.05495  -0.00047   0.00000  -0.02206  -0.02209  -2.07704
   D15        3.13301   0.00018   0.00000   0.00521   0.00518   3.13819
   D16        0.00103   0.00003   0.00000  -0.00050  -0.00050   0.00053
   D17        0.00917   0.00010   0.00000   0.00353   0.00351   0.01268
   D18       -3.12281  -0.00005   0.00000  -0.00218  -0.00217  -3.12498
   D19       -0.00983   0.00013   0.00000   0.00572   0.00574  -0.00410
   D20       -3.10993   0.00015   0.00000   0.00481   0.00483  -3.10511
   D21        3.14130   0.00000   0.00000   0.00017   0.00014   3.14145
   D22        0.04121   0.00002   0.00000  -0.00074  -0.00077   0.04044
   D23       -3.09759  -0.00000   0.00000  -0.00691  -0.00694  -3.10453
   D24        0.01346  -0.00020   0.00000  -0.00673  -0.00673   0.00673
   D25        0.00294   0.00002   0.00000  -0.00583  -0.00586  -0.00292
   D26        3.11399  -0.00017   0.00000  -0.00564  -0.00565   3.10834
   D27       -2.82899  -0.00000   0.00000  -0.00627  -0.00628  -2.83527
   D28       -0.17965   0.00074   0.00000   0.02232   0.02227  -0.15739
   D29        0.35432  -0.00001   0.00000  -0.00729  -0.00730   0.34703
   D30        3.00366   0.00073   0.00000   0.02130   0.02125   3.02491
   D31       -0.03817  -0.00007   0.00000   0.00801   0.00801  -0.03015
   D32        3.03924  -0.00022   0.00000   0.01354   0.01358   3.05282
   D33        3.13397   0.00011   0.00000   0.00777   0.00776  -3.14146
   D34       -0.07181  -0.00004   0.00000   0.01331   0.01333  -0.05849
   D35       -0.00819   0.00009   0.00000   0.00239   0.00239  -0.00580
   D36        3.13951   0.00033   0.00000   0.01118   0.01117  -3.13251
   D37        3.10252  -0.00007   0.00000   0.00273   0.00275   3.10527
   D38       -0.03297   0.00018   0.00000   0.01152   0.01153  -0.02144
   D39       -0.29208  -0.00044   0.00000   0.00150   0.00155  -0.29053
   D40       -3.13295  -0.00057   0.00000   0.00409   0.00413  -3.12882
   D41        2.91285  -0.00034   0.00000  -0.00416  -0.00412   2.90872
   D42        0.07198  -0.00048   0.00000  -0.00157  -0.00155   0.07044
   D43        1.00359   0.00086   0.00000   0.02766   0.02765   1.03123
   D44       -1.20692  -0.00060   0.00000  -0.00233  -0.00240  -1.20932
   D45       -0.99617   0.00588   0.00000   0.06777   0.06777  -0.92840
   D46        3.07651   0.00442   0.00000   0.03778   0.03773   3.11423
   D47        3.05784  -0.00360   0.00000  -0.01163  -0.01154   3.04630
   D48        0.84734  -0.00506   0.00000  -0.04162  -0.04159   0.80575
   D49       -0.61211   0.00005   0.00000   0.01757   0.01758  -0.59453
   D50        1.58954   0.00050   0.00000   0.02913   0.02918   1.61872
   D51       -2.67819   0.00045   0.00000   0.02702   0.02707  -2.65112
   D52        3.01236  -0.00029   0.00000  -0.00797  -0.00804   3.00431
   D53       -1.06918   0.00017   0.00000   0.00360   0.00355  -1.06563
   D54        0.94627   0.00011   0.00000   0.00149   0.00145   0.94772
   D55        0.59547  -0.00005   0.00000  -0.01574  -0.01572   0.57975
   D56       -2.84960  -0.00033   0.00000  -0.02119  -0.02117  -2.87077
   D57       -1.58671  -0.00123   0.00000  -0.03313  -0.03311  -1.61982
   D58        1.25140  -0.00151   0.00000  -0.03858  -0.03856   1.21284
   D59        2.66063  -0.00038   0.00000  -0.02167  -0.02166   2.63897
   D60       -0.78444  -0.00066   0.00000  -0.02712  -0.02711  -0.81155
   D61        0.96910   0.00053   0.00000   0.00406   0.00403   0.97313
   D62       -1.11660   0.00081   0.00000   0.00821   0.00819  -1.10842
   D63        3.02273  -0.00073   0.00000  -0.01135  -0.01137   3.01136
   D64        3.13612   0.00044   0.00000   0.01394   0.01396  -3.13311
   D65        1.05042   0.00073   0.00000   0.01810   0.01812   1.06853
   D66       -1.09343  -0.00081   0.00000  -0.00146  -0.00144  -1.09488
   D67       -1.07910   0.00007   0.00000   0.00284   0.00285  -1.07625
   D68        3.11838   0.00035   0.00000   0.00699   0.00701   3.12539
   D69        0.97453  -0.00119   0.00000  -0.01257  -0.01255   0.96198
         Item               Value     Threshold  Converged?
 Maximum Force            0.024966     0.000450     NO 
 RMS     Force            0.003465     0.000300     NO 
 Maximum Displacement     0.142603     0.001800     NO 
 RMS     Displacement     0.032712     0.001200     NO 
 Predicted change in Energy=-2.453742D-03
 GradGradGradGradGradGradGradGradGradGradGradGradGradGradGradGradGradGrad

                          Input orientation:                          
 ---------------------------------------------------------------------
 Center     Atomic      Atomic             Coordinates (Angstroms)
 Number     Number       Type             X           Y           Z
 ---------------------------------------------------------------------
      1          6           0       -1.555602    1.037555   -0.817508
      2          6           0       -2.689520    0.775584   -1.602183
      3         17           0       -4.290341    0.824049   -0.925010
      4          6           0       -2.574636    0.449224   -2.941639
      5          1           0       -3.466096    0.247651   -3.527624
      6          6           0       -1.303781    0.376474   -3.532579
      7          6           0       -0.166912    0.641990   -2.752521
      8          6           0        1.175100    0.612888   -3.383246
      9          6           0       -0.299111    0.965135   -1.408814
     10         16           0       -1.638825    1.512081    0.901489
     11          8           0       -0.257389    1.581018    1.351669
     12          8           0       -2.565116    2.626478    1.021163
     13          7           0       -2.328374    0.248833    1.723106
     14          1           0       -1.802853   -0.618465    1.630958
     15          1           0       -3.314004    0.126999    1.498835
     16          7           0       -1.158603    0.096063   -4.872971
     17          6           0        0.102099   -0.347999   -5.422638
     18          7           0        1.186276    0.281358   -4.714815
     19          1           0       -1.985972   -0.191303   -5.379528
     20          8           0        2.196466    0.920309   -2.791805
     21          1           0        0.591971    1.175717   -0.823419
     22          1           0        2.103582    0.249560   -5.145060
     23          6           0        0.207203   -1.895014   -5.461494
     24          1           0        0.151607   -0.034270   -6.471997
     25          1           0       -0.633858   -2.313313   -6.016143
     26         17           0        0.173114   -2.617206   -3.839474
     27         17           0        1.685836   -2.355839   -6.345411
 ---------------------------------------------------------------------
                    Distance matrix (angstroms):
                    1          2          3          4          5
     1  C    0.000000
     2  C    1.403608   0.000000
     3  Cl   2.745167   1.738833   0.000000
     4  C    2.428271   1.383420   2.674122   0.000000
     5  H    3.408617   2.142220   2.790199   1.085685   0.000000
     6  C    2.805718   2.409562   3.989897   1.403416   2.166155
     7  C    2.414375   2.775730   4.513934   2.422820   3.411877
     8  C    3.770953   4.258397   5.996545   3.779196   4.657783
     9  C    1.390560   2.405697   4.022920   2.791726   3.877362
    10  S    1.785231   2.813319   3.292419   4.095734   4.955275
    11  O    2.585737   3.910144   4.692650   5.008301   5.990089
    12  O    2.631446   3.212979   3.164292   4.521540   5.211722
    13  N    2.770195   3.386066   3.345551   4.675537   5.372577
    14  H    2.966230   3.630806   3.847261   4.758598   5.488853
    15  H    3.047382   3.229080   2.704467   4.513126   5.030207
    16  N    4.182200   3.674712   5.091576   2.420727   2.675344
    17  C    5.086743   4.863276   6.394989   3.735751   4.083858
    18  N    4.824804   4.995451   6.682100   4.161345   4.801576
    19  H    4.744190   3.962093   5.117009   2.588455   2.411016
    20  O    4.241416   5.030806   6.750767   4.796644   5.749653
    21  H    2.152020   3.396287   4.896014   3.878408   4.964065
    22  H    5.721736   5.983519   7.682520   5.175003   5.799778
    23  C    5.768366   5.515195   6.942686   4.425353   4.671616
    24  H    6.003051   5.695872   7.157980   4.486602   4.672964
    25  H    6.253298   5.766288   7.009461   4.566268   4.557723
    26  Cl   5.047574   4.971032   6.344979   4.214170   4.642037
    27  Cl   7.251190   7.172709   8.672204   6.132346   6.423433
                    6          7          8          9         10
     6  C    0.000000
     7  C    1.404087   0.000000
     8  C    2.494603   1.483124   0.000000
     9  C    2.422037   1.388326   2.489128   0.000000
    10  S    4.589425   4.034275   5.204390   2.726075   0.000000
    11  O    5.138263   4.211216   5.040706   2.828660   1.454572
    12  O    5.233551   4.891857   6.119034   3.714785   1.454035
    13  N    5.356147   4.985753   6.203362   3.799990   1.657205
    14  H    5.282149   4.845610   5.960426   3.742892   2.257932
    15  H    5.423870   5.314455   6.650027   4.271589   2.254218
    16  N    1.377083   2.403704   2.816479   3.673472   5.964906
    17  C    2.464484   2.860414   2.496749   4.242178   6.818013
    18  N    2.758099   2.410761   1.372265   3.688301   6.406149
    19  H    2.049140   3.302199   3.824165   4.466477   6.517146
    20  O    3.618872   2.380034   1.219631   2.853520   5.357245
    21  H    3.401796   2.140608   2.685057   1.086765   2.839876
    22  H    3.771780   3.321654   2.024370   4.499390   7.222210
    23  C    3.341173   3.730266   3.397868   4.986082   7.450078
    24  H    3.305608   3.793848   3.317640   5.180519   7.743717
    25  H    3.721806   4.427537   4.332104   5.664605   7.968515
    26  Cl   3.352241   3.452454   3.412569   4.354798   6.543000
    27  Cl   4.931061   5.032744   4.224762   6.272071   8.861814
                   11         12         13         14         15
    11  O    0.000000
    12  O    2.554960   0.000000
    13  N    2.490313   2.490375   0.000000
    14  H    2.702625   3.388591   1.018268   0.000000
    15  H    3.388026   2.652621   1.018139   1.690192   0.000000
    16  N    6.462462   6.566742   6.700742   6.574702   6.726561
    17  C    7.052771   7.581828   7.571332   7.311307   7.733187
    18  N    6.369891   7.243892   7.334893   7.072016   7.673708
    19  H    7.172038   7.017417   7.124491   7.025874   7.012622
    20  O    4.860691   6.334224   6.427245   6.158182   7.028813
    21  H    2.369955   3.933750   3.984007   3.870172   4.663615
    22  H    7.039492   8.091278   8.173979   7.869442   8.573599
    23  C    7.662756   8.375827   7.914778   7.481495   8.058140
    24  H    7.999136   8.402834   8.566807   8.355781   8.693138
    25  H    8.342194   8.812206   8.326581   7.919420   8.343453
    26  Cl   6.690170   7.656364   6.738984   6.150206   6.941771
    27  Cl   8.861152   9.857002   9.380787   8.877606   9.627829
                   16         17         18         19         20
    16  N    0.000000
    17  C    1.445231   0.000000
    18  N    2.357500   1.439633   0.000000
    19  H    1.011790   2.094386   3.275425   0.000000
    20  O    4.033252   3.593920   2.264223   5.042299   0.000000
    21  H    4.541920   4.869754   4.036835   5.410421   2.552290
    22  H    3.277109   2.107145   1.013692   4.119926   2.448742
    23  C    2.485190   1.551068   2.500542   2.778374   4.360097
    24  H    2.071357   1.096372   2.063456   2.405700   4.316999
    25  H    2.717957   2.180904   3.426173   2.595461   5.372467
    26  Cl   3.194278   2.767807   3.192866   3.594220   4.207799
    27  Cl   4.033700   2.718668   3.140575   4.370391   4.860247
                   21         22         23         24         25
    21  H    0.000000
    22  H    4.671115   0.000000
    23  C    5.575766   2.880206   0.000000
    24  H    5.793481   2.377295   2.118154   0.000000
    25  H    6.374980   3.849764   1.090868   2.453324   0.000000
    26  Cl   4.863978   3.694538   1.775858   3.688116   2.341248
    27  Cl   6.645361   2.898872   1.783263   2.785599   2.343332
                   26         27
    26  Cl   0.000000
    27  Cl   2.938770   0.000000
 Stoichiometry    C9H8Cl3N3O3S
 Framework group  C1[X(C9H8Cl3N3O3S)]
 Deg. of freedom    75
 Full point group                 C1      NOp   1
 Largest Abelian subgroup         C1      NOp   1
 Largest concise Abelian subgroup C1      NOp   1
                         Standard orientation:                         
 ---------------------------------------------------------------------
 Center     Atomic      Atomic             Coordinates (Angstroms)
 Number     Number       Type             X           Y           Z
 ---------------------------------------------------------------------
      1          6           0       -2.000354    0.185569   -0.143483
      2          6           0       -1.786259   -1.187682   -0.339597
      3         17           0       -3.074710   -2.340608   -0.154681
      4          6           0       -0.535405   -1.678412   -0.668834
      5          1           0       -0.393509   -2.745155   -0.812492
      6          6           0        0.543568   -0.792180   -0.810206
      7          6           0        0.333111    0.582843   -0.619213
      8          6           0        1.459089    1.528348   -0.813769
      9          6           0       -0.927754    1.058979   -0.286103
     10         16           0       -3.598322    0.886661    0.233372
     11          8           0       -3.356646    2.303355    0.457759
     12          8           0       -4.553447    0.393719   -0.745894
     13          7           0       -4.071959    0.263339    1.694011
     14          1           0       -3.418298    0.473696    2.445906
     15          1           0       -4.293280   -0.729155    1.643219
     16          7           0        1.790890   -1.244595   -1.178805
     17          6           0        2.978230   -0.446604   -0.973552
     18          7           0        2.658491    0.947117   -1.140444
     19          1           0        1.932204   -2.246094   -1.206187
     20          8           0        1.330325    2.739686   -0.753949
     21          1           0       -1.072892    2.127464   -0.150699
     22          1           0        3.432113    1.590688   -1.262506
     23          6           0        3.665237   -0.763405    0.380505
     24          1           0        3.715916   -0.721496   -1.736628
     25          1           0        3.890221   -1.828832    0.445624
     26         17           0        2.637551   -0.361424    1.771887
     27         17           0        5.225399    0.096883    0.456835
 ---------------------------------------------------------------------
 Rotational constants (GHZ):           0.5756305           0.1400083           0.1283934
 Basis read from rwf:  (6D, 7F)
 There are   393 symmetry adapted cartesian basis functions of A   symmetry.
 There are   393 symmetry adapted basis functions of A   symmetry.
   393 basis functions,   736 primitive gaussians,   393 cartesian basis functions
    87 alpha electrons       87 beta electrons
       nuclear repulsion energy      2073.8239799437 Hartrees.
 NAtoms=   27 NActive=   27 NUniq=   27 SFac= 1.00D+00 NAtFMM=   60 NAOKFM=F Big=F
 Integral buffers will be    131072 words long.
 Raffenetti 2 integral format.
 Two-electron integral symmetry is turned on.
 One-electron integrals computed using PRISM.
 NBasis=   393 RedAO= T EigKep=  1.08D-06  NBF=   393
 NBsUse=   391 1.00D-06 EigRej=  6.92D-07 NBFU=   391
 Initial guess from the checkpoint file:  "/jobfs/49788884.gadi-pbs/Gau-2814976.chk"
 B after Tr=     0.000000   -0.000000   -0.000000
         Rot=    0.999968   -0.007680   -0.002010   -0.000524 Ang=  -0.91 deg.
 ExpMin= 4.05D-02 ExpMax= 2.52D+04 ExpMxC= 3.78D+03 IAcc=3 IRadAn=         5 AccDes= 0.00D+00
 Harris functional with IExCor= 1009 and IRadAn=       5 diagonalized for initial guess.
 HarFok:  IExCor= 1009 AccDes= 0.00D+00 IRadAn=         5 IDoV= 1 UseB2=F ITyADJ=14
 ICtDFT=  3500011 ScaDFX=  1.000000  1.000000  1.000000  1.000000
 FoFCou: FMM=F IPFlag=           0 FMFlag=      100000 FMFlg1=           0
         NFxFlg=           0 DoJE=T BraDBF=F KetDBF=T FulRan=T
         wScrn=  0.000000 ICntrl=       500 IOpCl=  0 I1Cent=   200000004 NGrid=           0
         NMat0=    1 NMatS0=      1 NMatT0=    0 NMatD0=    1 NMtDS0=    0 NMtDT0=    0
 Petite list used in FoFCou.
 Requested convergence on RMS density matrix=1.00D-08 within 128 cycles.
 Requested convergence on MAX density matrix=1.00D-06.
 Requested convergence on             energy=1.00D-06.
 No special actions if energy rises.
 SCF Done:  E(RM062X) =  -2516.03971926     A.U. after   15 cycles
            NFock= 15  Conv=0.78D-08     -V/T= 2.0045
 Calling FoFJK, ICntrl=      2127 FMM=F ISym2X=0 I1Cent= 0 IOpClX= 0 NMat=1 NMatS=1 NMatT=0.
 ***** Axes restored to original set *****
[...]
 77,-0.00004476,0.00000404,0.00002080,-0.00005414,-0.00100015,-0.000058
 23,0.00062175,0.00226957,0.00721378,-0.00310637,-0.01718434,0.01066150
 ,-0.02734588,-0.00008198,-0.00019724,0.00029127,0.15018362,0.07877006,
 -0.00039169,0.00076806,0.00288993,0.00062482,-0.00001814,-0.00034607,0
 .00031703,0.00003657,0.00010056,0.00001228,0.00070637,0.00180768,0.000
 32760,-0.00000829,-0.00004227,0.00287085,-0.00215342,-0.00884145,-0.00
 001505,0.00145994,0.02187290,-0.25562594,-0.07358780,-0.23885224,0.001
 78252,-0.00091203,-0.00529100,-0.00204363,-0.00024145,-0.00062333,0.00
 115469,-0.00003721,-0.00004038,0.00042245,-0.00006686,0.00017488,0.000
 34622,0.00017848,0.00011356,-0.00008665,-0.00003907,0.00001118,-0.0000
 2714,0.00003073,-0.00002432,-0.00289711,-0.00025126,0.00454776,0.01435
 643,0.00238500,-0.00304023,-0.06784806,-0.02804895,-0.06511985,-0.0004
 3086,-0.00000390,0.00065597,0.31498660,0.10135508,0.28659128,-0.017166
 30,-0.00441832,-0.01224433,-0.00267067,0.00000087,0.00245498,-0.000905
 17,-0.00015251,-0.00029219,0.00017541,0.00026926,0.00078561,-0.0000079
 7,0.00000425,-0.00006226,0.00010560,-0.00004689,0.00189623,0.00911669,
 0.00049474,0.00096394,0.00054803,0.00065726,0.00144446,-0.25424112,-0.
 04653790,-0.12995634,-0.00411442,-0.00028027,-0.00120309,0.00197864,-0
 .00041210,-0.00222092,0.00067316,-0.00044163,0.00010049,0.00048138,0.0
 0042663,-0.00032625,-0.00003700,-0.00008431,0.00011304,-0.00007153,0.0
 0006075,-0.00000283,0.00046342,0.00012556,0.00047315,0.00048178,-0.000
 02144,-0.00011359,-0.00043121,-0.00024493,-0.00125443,-0.00000044,0.00
 006106,0.00020653,-0.00159898,-0.00006592,0.00015806,0.26739621,0.0012
 2272,0.00532859,0.00094057,-0.00001070,0.00545224,-0.00165569,0.000408
 64,0.00009179,0.00001319,0.00025476,-0.00087481,0.00007273,-0.00001066
 ,-0.00023320,0.00006547,-0.00005403,0.00598005,-0.00244363,-0.00544491
 ,0.00427969,-0.00419209,-0.00044182,-0.00419871,0.00059508,-0.04719408
 ,-0.05474437,-0.03376197,0.00137567,-0.00233638,0.00099906,-0.00027548
 ,-0.00093957,-0.00075975,0.00051320,-0.00053034,-0.00086881,-0.0007239
 2,-0.00020594,0.00079853,-0.00012825,0.00006761,0.00000202,0.00003004,
 -0.00009542,0.00009213,-0.00029929,-0.00007301,-0.00002287,-0.00004570
 ,0.00009392,0.00005764,-0.00002290,0.00011231,0.00013609,0.00005432,-0
 .00021688,-0.00003719,0.00011061,-0.00027272,0.00061435,0.05067551,0.0
 4305416,0.01016336,0.00238392,0.01209076,0.00219681,-0.00162279,-0.000
 95136,0.00152925,0.00016261,0.00009897,0.00068839,0.00013577,-0.000632
 72,-0.00007827,0.00006533,0.00000006,0.00173879,-0.00248311,-0.0038650
 9,-0.02308873,-0.00583247,-0.01106403,-0.00271121,0.00025884,-0.002281
 33,-0.13089001,-0.03376952,-0.14201025,0.00531363,0.00134794,0.0012831
 4,-0.00179345,-0.00050932,-0.00304153,-0.00096756,0.00014372,-0.000144
 36,-0.00076477,-0.00032174,-0.00059593,0.00008931,0.00007140,0.0000750
 4,-0.00004245,-0.00016653,0.00023434,-0.00118230,-0.00023493,-0.000423
 55,-0.00070429,-0.00000601,-0.00002824,0.00019648,0.00021291,0.0014317
 8,0.00007565,-0.00000648,-0.00040539,0.00080072,0.00071853,0.00203607,
 0.13909998,0.03939391,0.14809522,0.00037479,0.00004352,0.00000251,-0.0
 0019850,-0.00005030,-0.00022447,0.00011906,-0.00000613,-0.00005041,-0.
 00011747,0.00009785,0.00016320,0.00003417,-0.00001156,-0.00003160,0.00
 044632,0.00010775,-0.00066548,0.00114740,-0.00096328,-0.00110626,0.005
 14153,0.00196415,0.00409139,-0.00000390,0.00010521,0.00007989,-0.00000
 122,0.00004487,0.00029910,-0.00003743,-0.00002188,-0.00009785,0.000043
 39,-0.00006315,-0.00009465,0.00002699,0.00003229,-0.00011194,0.0000069
 5,-0.00001098,0.00002913,-0.00001073,-0.00000197,0.00003098,-0.0018932
 5,-0.00196147,-0.00308713,-0.01500126,0.00448829,0.00945369,-0.3855222
 7,0.01905917,0.14254156,-0.00039015,0.00002782,0.00077607,-0.00202633,
 -0.00047808,-0.00176705,0.00003494,-0.00000282,0.00007343,0.39769995,-
 0.00000402,-0.00044518,0.00002868,-0.00003497,0.00013587,0.00004330,0.
 00007018,0.00004228,-0.00003238,0.00005389,-0.00039286,0.00006972,0.00
 002039,0.00001222,-0.00001373,-0.00010504,-0.00043533,-0.00004784,-0.0
 0078597,0.00387879,-0.00186408,0.00859735,0.00264932,0.00212434,0.0002
 9791,0.00059793,-0.00018781,0.00001520,0.00008175,0.00013660,-0.000026
 22,-0.00005149,-0.00004418,0.00004065,-0.00011331,-0.00007133,-0.00000
 721,-0.00003044,-0.00000522,-0.00000528,0.00000839,0.00001592,-0.00000
 540,0.00000577,0.00001230,0.00000243,-0.00053126,-0.00131752,-0.014126
 31,-0.00131459,0.00783486,0.03270751,-0.02055399,-0.03836491,-0.000207
 47,0.00032960,0.00010222,-0.00191987,-0.00485588,0.00103700,-0.0000051
 7,0.00022694,-0.00004497,-0.02352049,0.02184904,0.00004327,-0.00001298
 ,-0.00035920,-0.00009540,-0.00007008,-0.00032796,-0.00004001,-0.000011
 34,0.00004903,-0.00030690,0.00025160,0.00051706,0.00007281,-0.00002145
 ,0.00000208,-0.00026491,-0.00020116,-0.00190661,-0.00221054,-0.0025285
 0,-0.00520452,0.04077471,-0.00328966,-0.01218718,0.00163896,0.00005072
 ,-0.00007028,0.00019047,-0.00001991,-0.00005681,-0.00004037,0.00001525
 ,0.00000930,-0.00002056,-0.00001357,-0.00000272,-0.00002541,0.00002113
 ,0.00000282,0.00001026,0.00000196,-0.00001907,0.00000212,-0.00000066,-
 0.00001345,-0.00524842,-0.00263787,-0.00185879,-0.01556966,0.00579190,
 0.01207116,0.13743785,-0.03118074,-0.12337456,-0.00120384,-0.00011451,
 0.00095038,-0.00360748,0.00288682,0.00452000,0.00003622,-0.00005983,0.
 00000309,-0.15100340,0.03151182,0.12769155,0.00079238,0.00021390,0.000
 57566,-0.00046183,-0.00058513,-0.00094962,0.00023085,0.00000802,-0.000
 07762,-0.00119476,-0.00003961,0.00167416,-0.00003150,0.00026040,-0.000
 06186,-0.00049157,0.00158653,-0.00638704,0.00170250,-0.00012257,0.0002
 1881,-0.00148885,-0.00135988,0.00962072,-0.00041307,-0.00003179,0.0003
 9106,-0.00011892,0.00012931,0.00022192,0.00003638,-0.00006463,-0.00014
 543,0.00007397,-0.00013334,-0.00010378,0.00003493,0.00002630,-0.000147
 75,-0.00001004,0.00000126,0.00006348,-0.00001731,0.00000293,0.00007133
 ,-0.01719987,0.02970250,0.01248990,-0.06109626,0.00139652,-0.00821532,
 -0.00519968,-0.03124946,-0.01356184,-0.00073653,0.00222144,0.00042865,
 -0.00268869,0.00010552,-0.00369716,-0.00004550,0.00005364,0.00012365,-
 0.00041068,-0.00266499,-0.00149921,0.45150370,-0.00018558,0.00002637,0
 .00080137,-0.00007632,-0.00012034,-0.00054407,-0.00020366,-0.00000826,
 0.00017410,-0.00068304,0.00045185,0.00136246,0.00001803,0.00005407,-0.
 00004211,-0.00154642,-0.00058256,-0.00332666,0.00092038,0.00082860,0.0
 0047528,-0.00038306,-0.00147625,0.00105236,0.00033941,0.00001543,-0.00
 045249,-0.00002213,0.00005745,-0.00089484,0.00014144,-0.00003910,0.000
 22325,-0.00005200,0.00004412,0.00021282,-0.00008194,-0.00016502,0.0002
 8210,-0.00003864,0.00006703,-0.00000309,0.00000769,0.00002114,-0.00003
 108,0.01603673,-0.01176965,-0.00095651,0.00030154,-0.15362918,0.002406
 84,-0.01565043,-0.02400650,-0.00896773,-0.00009442,0.00040044,0.000233
 48,0.00099422,0.00063534,0.00082947,-0.00001761,0.00008033,0.00000642,
 -0.00032999,-0.00009524,-0.00029196,0.06494542,0.39652374,-0.00000618,
 -0.00001201,-0.00030962,0.00035502,0.00019009,0.00002573,-0.00011327,-
 0.00000842,0.00001531,0.00081743,0.00029369,-0.00102031,0.00002559,-0.
 00025202,0.00012353,0.00100741,-0.00169196,0.00288860,0.00019375,0.000
 04172,-0.00128797,-0.00172520,-0.00313004,0.00833829,0.00012663,0.0001
 8030,-0.00016763,0.00001941,-0.00073292,-0.00030573,0.00008835,0.00022
 435,0.00014966,-0.00011890,0.00031616,0.00010701,0.00001952,0.00022592
 ,0.00015469,0.00002324,-0.00008397,-0.00016000,0.00005626,-0.00004434,
 -0.00008742,0.00797566,-0.01517791,-0.00371183,-0.00773170,0.00565380,
 -0.06897272,-0.00453551,-0.02427003,-0.00923309,-0.00034750,0.00018704
 ,0.00065981,-0.00127554,0.00038638,-0.00331568,-0.00012506,-0.00011148
 ,0.00004450,0.00001016,0.00085426,0.00100050,0.10230907,0.03798257,0.3
 7320202,0.00033217,0.00006322,0.00028516,-0.00042029,0.00016051,-0.000
 61957,-0.00011421,-0.00000169,0.00016685,-0.00004414,0.00072470,0.0018
 1168,0.00002298,-0.00015468,0.00000399,-0.00474692,-0.00342499,-0.0012
 0259,0.00056853,-0.00017595,-0.00020942,-0.00445238,0.00318924,0.00293
 550,0.00012954,0.00009956,0.00014031,-0.00002158,-0.00006374,-0.000344
 61,0.00009261,0.00001897,0.00008515,-0.00002306,0.00004576,0.00008102,
 -0.00001519,-0.00001930,0.00008996,-0.00000830,0.00001105,-0.00002046,
 0.00000564,0.00000575,-0.00001942,-0.00655669,-0.00000882,0.03686531,-
 0.05134584,-0.00461388,0.00772252,-0.00030470,-0.00007100,-0.03341729,
 0.00055741,0.00007375,-0.00022297,-0.00078890,-0.00166444,-0.00244149,
 -0.00007394,-0.00000470,0.00009050,0.00055368,-0.00011932,0.00006054,0
 .00345619,0.00197654,-0.00158904,0.06302622,0.00015637,-0.00001692,-0.
 00023763,-0.00000793,-0.00011430,0.00006299,0.00014030,-0.00000297,-0.
 00010142,0.00004551,-0.00023167,-0.00065730,0.00001419,0.00003238,0.00
 000843,0.00230112,0.00086924,-0.00020484,0.00004767,-0.00000608,-0.000
 30534,-0.00257245,0.00161191,0.00132884,-0.00006321,0.00000264,0.00017
 889,-0.00003050,0.00004348,0.00041205,-0.00004722,-0.00000839,-0.00011
 119,0.00004525,-0.00005823,-0.00010265,0.00004933,0.00006399,-0.000145
 70,0.00001043,-0.00002763,0.00001775,-0.00001007,-0.00000807,0.0000226
 7,0.00359704,0.00285289,-0.01630951,-0.00344977,-0.07551556,0.08465065
 ,-0.00187567,0.00259413,-0.02272239,-0.00037500,0.00020655,0.00055302,
 -0.00067755,-0.00098279,-0.00151666,-0.00001743,-0.00000545,0.00002096
 ,0.00026535,0.00029640,0.00059721,0.00011004,-0.01636320,0.03100575,0.
 00263246,0.08926015,0.00014289,-0.00001175,-0.00018561,-0.00004040,-0.
 00010585,0.00009386,0.00016058,-0.00000920,-0.00009839,-0.00006264,-0.
 00004089,-0.00062661,0.00001163,0.00001131,-0.00000739,0.00201379,0.00
 159534,0.00128837,0.00003185,0.00023735,0.00001353,-0.00230033,0.00247
 528,0.00331317,-0.00004354,0.00005039,0.00017424,-0.00005815,0.0000816
 1,0.00044823,-0.00004106,-0.00002672,-0.00013123,0.00006690,-0.0000871
 2,-0.00011911,0.00005100,0.00005439,-0.00015925,0.00000760,-0.00002157
 ,0.00003165,-0.00001656,-0.00000468,0.00003140,0.00755580,-0.00223891,
 -0.01120145,0.00740554,0.07888547,-0.28508444,-0.00608000,-0.00326786,
 -0.01859262,0.00040416,-0.00037156,0.00000348,-0.00070235,-0.00087097,
 -0.00158005,-0.00001819,-0.00000277,0.00003619,0.00000945,-0.00060816,
 0.00018388,0.00128882,0.00310937,-0.00321162,-0.01007000,-0.07767157,0
 .31242559,0.00011571,0.00002489,0.00000716,-0.00002504,-0.00003384,-0.
 00012520,-0.00002628,-0.00000043,0.00001492,-0.00006350,0.00003046,0.0
 0011853,-0.00000322,0.00000578,-0.00000204,0.00014990,0.00006361,-0.00
 025002,0.00010176,-0.00013091,-0.00019281,-0.00000279,0.00008002,-0.00
 026271,-0.00007536,0.00002505,0.00014485,0.00001710,-0.00001888,-0.000
 06231,0.00000432,0.00000763,0.00002185,-0.00001121,0.00001505,0.000015
 80,-0.00000571,-0.00000491,0.00002293,0.00000022,0.00000069,-0.0000077
 3,0.00000307,0.00000020,-0.00000574,0.00129323,-0.00023102,0.00054988,
 0.00271466,0.00228936,0.00104418,0.00034125,0.00096830,0.00076743,0.00
 014587,0.00000503,-0.00012709,0.00033458,0.00002912,0.00027375,0.00000
 305,-0.00001705,-0.00000187,-0.00007738,0.00023984,0.00015302,-0.21510
 643,-0.09039436,-0.11899785,0.00005534,-0.00057625,-0.00010647,0.23003
 986,0.00024480,0.00005249,0.00012720,-0.00005946,-0.00008385,-0.000281
 66,0.00004907,0.00000142,-0.00000943,-0.00021849,0.00004049,0.00021376
 ,0.00003958,-0.00000426,-0.00000733,0.00033501,0.00000294,-0.00133999,
 0.00046573,0.00006360,-0.00004747,-0.00075688,-0.00036754,0.00480856,0
 .00001696,0.00002034,0.00012496,-0.00002076,-0.00006585,-0.00004039,0.
 00003284,0.00002009,-0.00000107,-0.00000262,0.00001447,0.00000277,0.00
 000521,0.00002451,0.00000557,0.00000466,-0.00000768,-0.00001165,0.0000
 0455,0.00000019,-0.00000093,-0.00032034,0.00201881,0.00163276,-0.02326
 501,-0.00684085,-0.01603729,-0.00013161,-0.00747799,-0.00381232,0.0007
 8996,-0.00098402,-0.00028402,-0.00090403,-0.00005772,-0.00174597,-0.00
 004792,-0.00000200,0.00005948,0.00019860,-0.00005509,-0.00034357,-0.08
 954896,-0.09539409,-0.05982928,0.00031887,0.00075931,0.00072556,0.0909
 6556,0.10180467,0.00010045,0.00003347,0.00013663,-0.00005851,-0.000014
 11,-0.00017357,0.00001909,-0.00000430,0.00000968,-0.00020966,0.0000495
 2,0.00017376,0.00004130,-0.00002148,-0.00000224,0.00008984,-0.00015118
 ,-0.00093042,0.00021693,-0.00007303,0.00014651,-0.00009232,0.00050195,
 -0.00020483,-0.00002255,-0.00000538,0.00008616,-0.00003825,0.00005396,
 -0.00008932,0.00003618,-0.00002092,0.00001960,0.00001465,-0.00002021,0
 .00001968,-0.00000121,-0.00002877,0.00001920,-0.00001301,0.00001411,0.
 00001191,-0.00000578,0.00000388,0.00000025,0.00020156,0.00071931,0.000
 56041,-0.00096606,0.00079315,0.00211135,-0.00066642,-0.00019750,0.0009
 2623,0.00025512,-0.00071240,0.00005889,0.00016114,-0.00013249,0.000216
 58,0.00000099,0.00002530,0.00001358,0.00011325,-0.00030708,-0.00016374
 ,-0.11883512,-0.06073366,-0.11647583,0.00038989,-0.00071156,0.00029260
 ,0.11441908,0.05953492,0.13503018,-0.00006818,-0.00003469,0.00011242,0
 .00007178,-0.00004258,0.00000928,-0.00001978,0.00000690,0.00001774,0.0
 0012044,-0.00009311,-0.00019572,0.00003897,-0.00007611,-0.00000393,-0.
 00034163,0.00132537,-0.00075402,-0.00021469,0.00035038,0.00007428,-0.0
 0033071,-0.00020187,0.00029542,0.00014131,0.00002724,-0.00012048,0.000
 01200,-0.00002504,-0.00019272,0.00002934,0.00001600,0.00005328,-0.0000
 1774,0.00002750,0.00004401,-0.00001844,-0.00002531,0.00007154,0.000001
 15,0.00000996,-0.00000711,0.00000400,0.00000480,-0.00001907,0.00107123
 ,0.00165787,-0.00096876,-0.00029551,-0.00019083,-0.00076066,0.00090287
 ,-0.00109880,0.00183472,0.00007417,-0.00034250,-0.00001445,0.00027218,
 0.00006476,0.00004188,-0.00001649,-0.00001632,0.00001477,-0.00004247,0
 .00020389,0.00008474,-0.03430184,-0.00194742,-0.00362320,0.00032265,0.
 00010270,0.00018989,0.00517823,0.00842469,-0.01517572,0.03166403,0.001
 22104,0.00009734,-0.00048307,-0.00051522,-0.00019780,-0.00078292,0.000
 18365,0.00000288,-0.00008093,-0.00042569,0.00010812,0.00036860,-0.0000
 0169,-0.00001465,0.00003544,0.00161307,-0.00267911,0.00144182,0.000481
 86,-0.00260893,-0.00166031,-0.00017845,-0.00093926,0.00133610,-0.00075
 619,0.00001813,0.00153815,0.00005925,-0.00008660,0.00075978,-0.0001203
 7,0.00004802,-0.00017573,0.00003498,-0.00002035,-0.00018682,0.00007801
 ,0.00016094,-0.00026712,0.00003539,-0.00006124,-0.00000393,-0.00000936
 ,-0.00002261,0.00003133,-0.00045390,0.00043361,-0.00232242,-0.00018712
 ,-0.01304722,0.03452201,0.00139899,0.00140367,-0.00055433,-0.00000452,
 -0.00013566,0.00010993,-0.00041352,0.00003859,-0.00063608,-0.00000686,
 -0.00002729,0.00001669,0.00012056,-0.00026787,0.00013055,0.00334962,-0
 .05276766,0.03845497,0.00029380,-0.00571441,-0.00072115,0.00000958,0.0
 0258248,-0.00061213,-0.00240575,0.06919471,0.00021337,0.00013499,0.000
 34895,-0.00022258,0.00000297,-0.00037580,0.00005259,-0.00000857,0.0000
 1204,-0.00077976,0.00002802,0.00088598,0.00000758,0.00010445,-0.000055
 00,-0.00010418,-0.00088793,-0.00243429,0.00042488,-0.00114217,0.000646
 17,0.00085869,-0.00001813,-0.00246679,-0.00018711,-0.00003661,0.000328
 49,-0.00001631,0.00030616,-0.00003840,-0.00000318,-0.00009661,-0.00002
 777,0.00004502,-0.00013581,0.00000209,-0.00002280,-0.00012365,-0.00003
 601,-0.00001118,0.00004234,0.00006911,-0.00002303,0.00002758,0.0000459
 8,-0.00059570,-0.00013112,0.00339484,0.00072142,0.00757557,-0.02006894
 ,-0.00075516,-0.00196058,0.00418594,0.00013549,0.00002153,-0.00033538,
 0.00047909,0.00025459,0.00121386,0.00003928,0.00007906,0.00000254,0.00
 003298,-0.00003072,-0.00042105,-0.01704943,0.04382618,-0.13092627,-0.0
 0002850,0.00232323,0.00175475,0.00278304,0.01651420,-0.02546922,-0.004
 90018,-0.07073309,0.19695455,0.00016961,0.00014867,0.00080049,0.000196
 23,-0.00026911,-0.00077864,-0.00019293,0.00000456,0.00013012,-0.000556
 46,0.00033898,0.00101102,0.00009020,-0.00000811,-0.00001300,0.00011880
 ,0.00008032,-0.00403141,0.00071084,0.00030654,0.00038346,-0.00099912,-
 0.00007543,0.00208856,0.00015905,-0.00003819,-0.00024235,0.00000282,-0
 .00036325,-0.00128491,0.00023589,0.00009866,0.00035036,-0.00015338,0.0
 0024522,0.00032375,-0.00008705,-0.00005957,0.00043874,-0.00002881,0.00
 003210,-0.00012005,0.00005165,0.00000268,-0.00009066,-0.00040520,0.005
 53640,0.00364014,-0.01707342,0.00292784,0.00904704,0.00176619,-0.00214
 200,-0.00264736,0.00054845,-0.00079371,0.00031236,0.00057587,-0.000090
 98,-0.00040335,-0.00007759,-0.00000647,0.00003020,0.00010388,0.0012884
 8,0.00063115,-0.11681758,0.02602563,0.02716147,-0.00020683,0.00018526,
 0.00019977,-0.02510123,0.01337999,0.02002513,-0.00423684,-0.00340116,0
 .01890567,0.16120697,-0.00015862,-0.00014030,-0.00072032,-0.00007278,0
 .00026451,0.00072176,0.00020966,-0.00000463,-0.00013673,0.00066912,-0.
 00020991,-0.00124029,-0.00002828,-0.00006557,0.00002943,0.00034206,-0.
 00023966,0.00394589,-0.00061462,-0.00004436,-0.00067292,0.00145802,-0.
 00004091,0.00028297,0.00002204,0.00003130,0.00012319,-0.00005392,0.000
 13799,0.00102829,-0.00014485,-0.00003362,-0.00027156,0.00011594,-0.000
 14204,-0.00025177,0.00009537,0.00011706,-0.00034176,0.00002416,-0.0000
 4859,0.00006221,-0.00003291,-0.00001261,0.00005524,0.00195270,-0.00627
 701,-0.00481288,0.02553690,-0.00594420,-0.01274037,0.00056462,-0.00054
 535,-0.00094090,-0.00012807,-0.00003425,-0.00024258,-0.00061629,-0.000
 06905,-0.00013397,0.00002533,-0.00001152,-0.00000055,0.00086667,-0.000
 97174,-0.00046114,0.02168701,-0.04278884,-0.01065263,0.00070830,0.0004
 6261,-0.00116533,-0.00335250,0.00393511,0.00201660,-0.00572172,0.00450
 217,0.00406411,-0.04335335,0.04817339,-0.00009251,-0.00006452,-0.00039
 774,-0.00019330,0.00016435,0.00046801,0.00015879,-0.00000522,-0.000078
 20,0.00022921,-0.00025445,-0.00043245,-0.00003806,0.00002865,-0.000012
 99,-0.00035980,0.00015469,0.00154184,-0.00030397,-0.00015955,-0.000091
 94,0.00084471,0.00025161,-0.00115000,-0.00003730,-0.00000675,0.0001886
 0,-0.00004226,0.00033288,0.00080094,-0.00012848,-0.00009525,-0.0002337
 5,0.00011797,-0.00020108,-0.00020846,0.00005957,0.00000007,-0.00028507
 ,0.00001126,-0.00000728,0.00009849,-0.00004112,0.00000716,0.00006648,0
 .00126977,-0.00283830,0.00003614,0.00954420,-0.00195244,-0.00476221,0.
 00017366,-0.00043657,0.00122229,-0.00001724,0.00006275,-0.00030738,-0.
 00027579,-0.00003538,0.00036465,0.00004651,0.00003095,-0.00000150,0.00
 053348,-0.00083111,-0.00103491,0.04125396,-0.01673386,-0.04752394,-0.0
 0054305,-0.00038465,0.00090684,-0.00019459,0.00004264,0.00367599,0.023
 89205,0.00047466,-0.02719038,-0.07586769,0.02245601,0.07434066\\0.0000
 1479,-0.00000079,-0.00001568,-0.00000033,-0.00000907,-0.00000372,-0.00
 000355,-0.00000354,0.00000548,-0.00000776,0.00000147,-0.00000661,-0.00
 000029,-0.00000194,0.00000168,0.00001702,-0.00000060,0.00002414,-0.000
 02805,-0.00001515,-0.00002396,0.00002857,0.00004087,0.00002016,-0.0000
 1383,0.00000320,0.00001667,0.00001106,0.00003056,-0.00002495,-0.000031
 90,0.00000329,0.00000305,0.00002322,-0.00001711,0.00001130,-0.00001048
 ,-0.00000458,0.00002095,0.00001572,0.00000206,0.00000354,0.00000087,0.
 00000086,-0.00000791,-0.00000761,0.00001577,-0.00001487,-0.00000079,-0
 .00001286,0.00000819,-0.00001554,-0.00000865,-0.00001766,-0.00000855,-
 0.00001407,0.00000227,0.00000085,-0.00001470,0.00000041,0.00000091,0.0
 0000103,-0.00000253,0.00000099,0.00001763,-0.00001240,-0.00000251,0.00
 000742,-0.00001023,0.00000609,-0.00000480,0.00000746,0.00000205,-0.000
 00100,0.00000295,0.00000471,-0.00001139,0.00000845,0.00000434,-0.00000
 389,0.00000382\\\@
 The archive entry for this job was punched.


 The impersonal hand of government can
 never replace the helping hand of a neighbor.
                        -- Hubert H. Humphrey
 Job cpu time:       0 days  3 hours 27 minutes 44.2 seconds.
 Elapsed time:       0 days  0 hours 13 minutes 11.4 seconds.
 File lengths (MBytes):  RWF=    503 Int=      0 D2E=      0 Chk=     14 Scr=      1
 Normal termination of Gaussian 16 at Fri Jul  1 09:35:43 2022.
