 Entering Gaussian System, Link 0=g16
 AtFile(1): /home/561/yj5695/Basis/6-31pGd.gbs
 Initial command:
 /apps/gaussian/g16c01/g16/l1.exe "/jobfs/50065312.gadi-pbs/Gau-2570155.inp" -scrdir="/jobfs/50065312.gadi-pbs/"
 Entering Link 1 = /apps/gaussian/g16c01/g16/l1.exe PID=   2570201.
  
 Copyright (c) 1988-2019, Gaussian, Inc.  All Rights Reserved.
  
 This is part of the Gaussian(R) 16 program.  It is based on
 the Gaussian(R) 09 system (copyright 2009, Gaussian, Inc.),
 the Gaussian(R) 03 system (copyright 2003, Gaussian, Inc.),
 the Gaussian(R) 98 system (copyright 1998, Gaussian, Inc.),
 the Gaussian(R) 94 system (copyright 1995, Gaussian, Inc.),
 the Gaussian 92(TM) system (copyright 1992, Gaussian, Inc.),
 the Gaussian 90(TM) system (copyright 1990, Gaussian, Inc.),
 the Gaussian 88(TM) system (copyright 1988, Gaussian, Inc.),
 the Gaussian 86(TM) system (copyright 1986, Carnegie Mellon
 University), and the Gaussian 82(TM) system (copyright 1983,
 Carnegie Mellon University). Gaussian is a federally registered
 trademark of Gaussian, Inc.
  
 This software contains proprietary and confidential information,
 including trade secrets, belonging to Gaussian, Inc.
  
 This software is provided under written license and may be
 used, copied, transmitted, or stored only in accord with that
 written license.
  
 The following legend is applicable only to US Government
 contracts under FAR:
  
                    RESTRICTED RIGHTS LEGEND
  
 Use, reproduction and disclosure by the US Government is
 subject to restrictions as set forth in subparagraphs (a)
 and (c) of the Commercial Computer Software - Restricted
 Rights clause in FAR 52.227-19.
  
 Gaussian, Inc.
 340 Quinnipiac St., Bldg. 40, Wallingford CT 06492
  
  
 ---------------------------------------------------------------
 Warning -- This program may not be used in any manner that
 competes with the business of Gaussian, Inc. or will provide
 assistance to any competitor of Gaussian, Inc.  The licensee
 of this program is prohibited from giving any competitor of
 Gaussian, Inc. access to this program.  By using this program,
 the user acknowledges that Gaussian, Inc. is engaged in the
 business of creating and licensing software in the field of
 computational chemistry and represents and warrants to the
 licensee that it is not a competitor of Gaussian, Inc. and that
 it will not use this program in any manner prohibited above.
 ---------------------------------------------------------------
  

 Cite this work as:
 Gaussian 16, Revision C.01,
 M. J. Frisch, G. W. Trucks, H. B. Schlegel, G. E. Scuseria, 
 M. A. Robb, J. R. Cheeseman, G. Scalmani, V. Barone, 
 G. A. Petersson, H. Nakatsuji, X. Li, M. Caricato, A. V. Marenich, 
 J. Bloino, B. G. Janesko, R. Gomperts, B. Mennucci, H. P. Hratchian, 
 J. V. Ortiz, A. F. Izmaylov, J. L. Sonnenberg, D. Williams-Young, 
 F. Ding, F. Lipparini, F. Egidi, J. Goings, B. Peng, A. Petrone, 
 T. Henderson, D. Ranasinghe, V. G. Zakrzewski, J. Gao, N. Rega, 
 G. Zheng, W. Liang, M. Hada, M. Ehara, K. Toyota, R. Fukuda, 
 J. Hasegawa, M. Ishida, T. Nakajima, Y. Honda, O. Kitao, H. Nakai, 
 T. Vreven, K. Throssell, J. A. Montgomery, Jr., J. E. Peralta, 
 F. Ogliaro, M. J. Bearpark, J. J. Heyd, E. N. Brothers, K. N. Kudin, 
 V. N. Staroverov, T. A. Keith, R. Kobayashi, J. Normand, 
 K. Raghavachari, A. P. Rendell, J. C. Burant, S. S. Iyengar, 
 J. Tomasi, M. Cossi, J. M. Millam, M. Klene, C. Adamo, R. Cammi, 
 J. W. Ochterski, R. L. Martin, K. Morokuma, O. Farkas, 
 J. B. Foresman, and D. J. Fox, Gaussian, Inc., Wallingford CT, 2019.
 
 ******************************************
 Gaussian 16:  ES64L-G16RevC.01  3-Jul-2019
                 2-Jul-2022 
 ******************************************
 %nproc=16
 Will use up to   16 processors via shared memory.
 %mem=50gb
 --------------------------------------------------
 #M062X/gen 6D INT(grid=ultrafine) OPT Freq=noraman
 --------------------------------------------------
 1/18=20,19=15,26=4,38=1/1,3;
 2/9=110,12=2,17=6,18=5,40=1/2;
 3/5=7,8=2,11=2,25=1,30=1,71=1,74=-55,75=-5/1,2,3;
 4//1;
 5/5=2,38=5/2;
 6/7=2,8=2,9=2,10=2,28=1/1;
 7//1,2,3,16;
 1/18=20,19=15,26=4/3(2);
 2/9=110/2;
 99//99;
 2/9=110/2;
 3/5=7,6=1,8=2,11=2,25=1,30=1,71=1,74=-55,75=-5,82=7/1,2,3;
 4/5=5,16=3,69=1/1;
 5/5=2,38=5/2;
 7//1,2,3,16;
 1/18=20,19=15,26=4/3(-5);
 2/9=110/2;
 6/7=2,8=2,9=2,10=2,19=2,28=1/1;
 99/9=1/99;
 ----------
 HA.39.freq
 ----------
 Symbolic Z-matrix:
 Charge =  0 Multiplicity = 1
 S                    -2.27804   1.29925  -1.01337 
 O                    -2.20413   2.75727  -0.91147 
 O                    -3.54727   0.62685  -0.72525 
 N                    -1.17      0.69961   0.04679 
 H                    -0.24373   1.10515  -0.10155 
 H                    -1.11865  -0.32077   0.00771 
 C                    -1.84167   0.81098  -2.69912 
 N                    -0.52439   1.29738  -3.06287 
 C                    -0.29543   1.18434  -4.53161 
 C                     0.2574   -0.20651  -4.68255 
 C                     0.67238  -0.60753  -3.42123 
 O                     0.41397   0.3618   -2.46636 
 C                     0.45346  -1.04491  -5.76976 
 C                     1.07288  -2.28238  -5.55271 
 C                     1.48684  -2.6585   -4.27251 
 C                     1.2906   -1.81953  -3.16902 
 H                    -2.59833   1.29646  -3.32171 
 H                    -1.95373  -0.27906  -2.75192 
 H                    -1.22883   1.36839  -5.0648 
 H                     0.13811  -0.74792  -6.76578 
 H                     1.23254  -2.9563   -6.38862 
 H                     1.96342  -3.62288  -4.12395 
 H                     1.60192  -2.10114  -2.16845 
 H                     0.43914   1.9382   -4.82865 
 

 GradGradGradGradGradGradGradGradGradGradGradGradGradGradGradGradGradGrad
 Berny optimization.
 Initialization pass.
                           ----------------------------
                           !    Initial Parameters    !
                           ! (Angstroms and Degrees)  !
 --------------------------                            --------------------------
 ! Name  Definition              Value          Derivative Info.                !
 --------------------------------------------------------------------------------
 ! R1    R(1,2)                  1.4634         estimate D2E/DX2                !
 ! R2    R(1,3)                  1.465          estimate D2E/DX2                !
 ! R3    R(1,4)                  1.6466         estimate D2E/DX2                !
 ! R4    R(1,7)                  1.8085         estimate D2E/DX2                !
 ! R5    R(4,5)                  1.022          estimate D2E/DX2                !
 ! R6    R(4,6)                  1.0224         estimate D2E/DX2                !
 ! R7    R(7,8)                  1.4506         estimate D2E/DX2                !
 ! R8    R(7,17)                 1.0935         estimate D2E/DX2                !
 ! R9    R(7,18)                 1.0971         estimate D2E/DX2                !
 ! R10   R(8,9)                  1.4908         estimate D2E/DX2                !
 ! R11   R(8,12)                 1.4532         estimate D2E/DX2                !
 ! R12   R(9,10)                 1.5043         estimate D2E/DX2                !
 ! R13   R(9,19)                 1.0906         estimate D2E/DX2                !
 ! R14   R(9,24)                 1.0937         estimate D2E/DX2                !
 ! R15   R(10,11)                1.3871         estimate D2E/DX2                !
 ! R16   R(10,13)                1.3869         estimate D2E/DX2                !
 ! R17   R(11,12)                1.385          estimate D2E/DX2                !
 ! R18   R(11,16)                1.3837         estimate D2E/DX2                !
 ! R19   R(13,14)                1.4008         estimate D2E/DX2                !
 ! R20   R(13,20)                1.0861         estimate D2E/DX2                !
 ! R21   R(14,15)                1.397          estimate D2E/DX2                !
 ! R22   R(14,21)                1.0855         estimate D2E/DX2                !
 ! R23   R(15,16)                1.4            estimate D2E/DX2                !
 ! R24   R(15,22)                1.0859         estimate D2E/DX2                !
 ! R25   R(16,23)                1.0851         estimate D2E/DX2                !
 ! A1    A(2,1,3)              119.1664         estimate D2E/DX2                !
 ! A2    A(2,1,4)              106.4995         estimate D2E/DX2                !
 ! A3    A(2,1,7)              108.7662         estimate D2E/DX2                !
 ! A4    A(3,1,4)              106.8129         estimate D2E/DX2                !
 ! A5    A(3,1,7)              105.5727         estimate D2E/DX2                !
 ! A6    A(4,1,7)              109.8442         estimate D2E/DX2                !
 ! A7    A(1,4,5)              111.8357         estimate D2E/DX2                !
 ! A8    A(1,4,6)              111.8783         estimate D2E/DX2                !
 ! A9    A(5,4,6)              110.1795         estimate D2E/DX2                !
 ! A10   A(1,7,8)              111.2437         estimate D2E/DX2                !
 ! A11   A(1,7,17)             104.1157         estimate D2E/DX2                !
 ! A12   A(1,7,18)             106.7669         estimate D2E/DX2                !
 ! A13   A(8,7,17)             109.6769         estimate D2E/DX2                !
 ! A14   A(8,7,18)             114.4482         estimate D2E/DX2                !
 ! A15   A(17,7,18)            110.0617         estimate D2E/DX2                !
 ! A16   A(7,8,9)              111.168          estimate D2E/DX2                !
 ! A17   A(7,8,12)             105.5202         estimate D2E/DX2                !
 ! A18   A(9,8,12)             104.8583         estimate D2E/DX2                !
 ! A19   A(8,9,10)             103.0271         estimate D2E/DX2                !
 ! A20   A(8,9,19)             109.7207         estimate D2E/DX2                !
 ! A21   A(8,9,24)             108.5705         estimate D2E/DX2                !
 ! A22   A(10,9,19)            114.9301         estimate D2E/DX2                !
 ! A23   A(10,9,24)            111.2981         estimate D2E/DX2                !
 ! A24   A(19,9,24)            109.0097         estimate D2E/DX2                !
 ! A25   A(9,10,11)            106.6197         estimate D2E/DX2                !
 ! A26   A(9,10,13)            133.595          estimate D2E/DX2                !
 ! A27   A(11,10,13)           119.7224         estimate D2E/DX2                !
 ! A28   A(10,11,12)           111.6403         estimate D2E/DX2                !
 ! A29   A(10,11,16)           123.548          estimate D2E/DX2                !
 ! A30   A(12,11,16)           124.8005         estimate D2E/DX2                !
 ! A31   A(8,12,11)            106.743          estimate D2E/DX2                !
 ! A32   A(10,13,14)           118.3659         estimate D2E/DX2                !
 ! A33   A(10,13,20)           120.8337         estimate D2E/DX2                !
 ! A34   A(14,13,20)           120.8            estimate D2E/DX2                !
 ! A35   A(13,14,15)           120.7213         estimate D2E/DX2                !
 ! A36   A(13,14,21)           119.6147         estimate D2E/DX2                !
 ! A37   A(15,14,21)           119.664          estimate D2E/DX2                !
 ! A38   A(14,15,16)           121.2919         estimate D2E/DX2                !
 ! A39   A(14,15,22)           119.6369         estimate D2E/DX2                !
 ! A40   A(16,15,22)           119.0694         estimate D2E/DX2                !
 ! A41   A(11,16,15)           116.3493         estimate D2E/DX2                !
 ! A42   A(11,16,23)           121.5727         estimate D2E/DX2                !
 ! A43   A(15,16,23)           122.0777         estimate D2E/DX2                !
 ! D1    D(2,1,4,5)            -52.918          estimate D2E/DX2                !
 ! D2    D(2,1,4,6)           -177.0685         estimate D2E/DX2                !
 ! D3    D(3,1,4,5)            178.7311         estimate D2E/DX2                !
 ! D4    D(3,1,4,6)             54.5806         estimate D2E/DX2                !
 ! D5    D(7,1,4,5)             64.7019         estimate D2E/DX2                !
 ! D6    D(7,1,4,6)            -59.4486         estimate D2E/DX2                !
 ! D7    D(2,1,7,8)             57.1236         estimate D2E/DX2                !
 ! D8    D(2,1,7,17)           -60.9284         estimate D2E/DX2                !
 ! D9    D(2,1,7,18)          -177.3635         estimate D2E/DX2                !
 ! D10   D(3,1,7,8)           -173.8989         estimate D2E/DX2                !
 ! D11   D(3,1,7,17)            68.0491         estimate D2E/DX2                !
 ! D12   D(3,1,7,18)           -48.386          estimate D2E/DX2                !
 ! D13   D(4,1,7,8)            -59.0766         estimate D2E/DX2                !
 ! D14   D(4,1,7,17)          -177.1286         estimate D2E/DX2                !
 ! D15   D(4,1,7,18)            66.4363         estimate D2E/DX2                !
 ! D16   D(1,7,8,9)           -166.4751         estimate D2E/DX2                !
 ! D17   D(1,7,8,12)            80.3882         estimate D2E/DX2                !
 ! D18   D(17,7,8,9)           -51.8358         estimate D2E/DX2                !
 ! D19   D(17,7,8,12)         -164.9725         estimate D2E/DX2                !
 ! D20   D(18,7,8,9)            72.4113         estimate D2E/DX2                !
 ! D21   D(18,7,8,12)          -40.7254         estimate D2E/DX2                !
 ! D22   D(7,8,9,10)           -87.9479         estimate D2E/DX2                !
 ! D23   D(7,8,9,19)            34.9088         estimate D2E/DX2                !
 ! D24   D(7,8,9,24)           153.9513         estimate D2E/DX2                !
 ! D25   D(12,8,9,10)           25.6052         estimate D2E/DX2                !
 ! D26   D(12,8,9,19)          148.4618         estimate D2E/DX2                !
 ! D27   D(12,8,9,24)          -92.4956         estimate D2E/DX2                !
 ! D28   D(7,8,12,11)           91.8978         estimate D2E/DX2                !
 ! D29   D(9,8,12,11)          -25.5802         estimate D2E/DX2                !
 ! D30   D(8,9,10,11)          -17.0556         estimate D2E/DX2                !
 ! D31   D(8,9,10,13)          165.9462         estimate D2E/DX2                !
 ! D32   D(19,9,10,11)        -136.3622         estimate D2E/DX2                !
 ! D33   D(19,9,10,13)          46.6397         estimate D2E/DX2                !
 ! D34   D(24,9,10,11)          99.1148         estimate D2E/DX2                !
 ! D35   D(24,9,10,13)         -77.8833         estimate D2E/DX2                !
 ! D36   D(9,10,11,12)           1.598          estimate D2E/DX2                !
 ! D37   D(9,10,11,16)        -177.2336         estimate D2E/DX2                !
 ! D38   D(13,10,11,12)        179.095          estimate D2E/DX2                !
 ! D39   D(13,10,11,16)          0.2633         estimate D2E/DX2                !
 ! D40   D(9,10,13,14)         176.6231         estimate D2E/DX2                !
 ! D41   D(9,10,13,20)          -3.1402         estimate D2E/DX2                !
 ! D42   D(11,10,13,14)         -0.0643         estimate D2E/DX2                !
 ! D43   D(11,10,13,20)       -179.8276         estimate D2E/DX2                !
 ! D44   D(10,11,12,8)          15.2308         estimate D2E/DX2                !
 ! D45   D(16,11,12,8)        -165.955          estimate D2E/DX2                !
 ! D46   D(10,11,16,15)         -0.1384         estimate D2E/DX2                !
 ! D47   D(10,11,16,23)       -179.966          estimate D2E/DX2                !
 ! D48   D(12,11,16,15)       -178.8158         estimate D2E/DX2                !
 ! D49   D(12,11,16,23)          1.3566         estimate D2E/DX2                !
 ! D50   D(10,13,14,15)         -0.2436         estimate D2E/DX2                !
 ! D51   D(10,13,14,21)        179.7384         estimate D2E/DX2                !
 ! D52   D(20,13,14,15)        179.5198         estimate D2E/DX2                !
 ! D53   D(20,13,14,21)         -0.4982         estimate D2E/DX2                !
 ! D54   D(13,14,15,16)          0.3737         estimate D2E/DX2                !
 ! D55   D(13,14,15,22)        179.8748         estimate D2E/DX2                !
 ! D56   D(21,14,15,16)       -179.6083         estimate D2E/DX2                !
 ! D57   D(21,14,15,22)         -0.1072         estimate D2E/DX2                !
 ! D58   D(14,15,16,11)         -0.1793         estimate D2E/DX2                !
 ! D59   D(14,15,16,23)        179.6474         estimate D2E/DX2                !
 ! D60   D(22,15,16,11)       -179.6831         estimate D2E/DX2                !
 ! D61   D(22,15,16,23)          0.1435         estimate D2E/DX2                !
 --------------------------------------------------------------------------------
 Trust Radius=3.00D-01 FncErr=1.00D-07 GrdErr=1.00D-06 EigMax=2.50D+02 EigMin=1.00D-04
 Number of steps in this run=    139 maximum allowed number of steps=    144.
 GradGradGradGradGradGradGradGradGradGradGradGradGradGradGradGradGradGrad

                          Input orientation:                          
 ---------------------------------------------------------------------
 Center     Atomic      Atomic             Coordinates (Angstroms)
 Number     Number       Type             X           Y           Z
 ---------------------------------------------------------------------
      1         16           0       -2.278038    1.299246   -1.013372
      2          8           0       -2.204133    2.757267   -0.911475
      3          8           0       -3.547274    0.626849   -0.725253
      4          7           0       -1.169998    0.699606    0.046787
      5          1           0       -0.243735    1.105146   -0.101548
      6          1           0       -1.118647   -0.320772    0.007713
      7          6           0       -1.841671    0.810979   -2.699117
      8          7           0       -0.524391    1.297385   -3.062868
      9          6           0       -0.295434    1.184338   -4.531607
     10          6           0        0.257400   -0.206512   -4.682546
     11          6           0        0.672378   -0.607530   -3.421228
     12          8           0        0.413966    0.361801   -2.466358
     13          6           0        0.453459   -1.044905   -5.769756
     14          6           0        1.072881   -2.282379   -5.552708
     15          6           0        1.486838   -2.658503   -4.272510
     16          6           0        1.290604   -1.819525   -3.169022
     17          1           0       -2.598328    1.296462   -3.321712
     18          1           0       -1.953732   -0.279063   -2.751919
     19          1           0       -1.228826    1.368388   -5.064802
     20          1           0        0.138107   -0.747916   -6.765779
     21          1           0        1.232541   -2.956297   -6.388618
     22          1           0        1.963424   -3.622880   -4.123948
     23          1           0        1.601918   -2.101142   -2.168448
     24          1           0        0.439138    1.938195   -4.828649
 ---------------------------------------------------------------------
                    Distance matrix (angstroms):
                    1          2          3          4          5
     1  S    0.000000
     2  O    1.463445   0.000000
     3  O    1.464953   2.525349   0.000000
     4  N    1.646590   2.494328   2.500556   0.000000
     5  H    2.237742   2.688614   3.395754   1.021973   0.000000
     6  H    2.238584   3.390797   2.708034   1.022416   1.676500
     7  C    1.808469   2.667411   2.615172   2.829052   3.063870
     8  N    2.697353   3.095365   3.879675   3.231733   2.980795
     9  C    4.040037   4.384358   5.037220   4.686311   4.431068
    10  C    4.707292   5.391114   5.552495   5.022460   4.791360
    11  C    4.258935   5.088717   5.157270   4.138850   3.846141
    12  O    3.199509   3.874321   4.335103   2.989808   2.564656
    13  C    5.964840   6.717307   6.651889   6.285786   6.102244
    14  C    6.682984   7.594597   7.287919   6.728825   6.551637
    15  C    6.360822   7.365486   6.979889   6.082105   5.878508
    16  C    5.206608   6.185203   5.946580   4.768858   4.507471
    17  H    2.330457   2.845802   2.844377   3.707175   3.993766
    18  H    2.370397   3.559387   2.732659   3.066722   3.444502
    19  H    4.185655   4.486684   4.975616   5.155488   5.066911
    20  H    6.566492   7.214241   7.208326   7.086431   6.927598
    21  H    7.702408   8.628710   8.231601   7.781533   7.629021
    22  H    7.203681   8.270115   7.744618   6.774751   6.588284
    23  H    5.286862   6.298424   6.003243   4.520506   4.237782
    24  H    4.727329   4.796041   5.869324   5.281410   4.848275
                    6          7          8          9         10
     6  H    0.000000
     7  C    3.021680   0.000000
     8  N    3.521368   1.450562   0.000000
     9  C    4.852675   2.426574   1.490770   0.000000
    10  C    4.889283   3.061923   2.344410   1.504284   0.000000
    11  C    3.879128   2.975576   2.278021   2.319567   1.387064
    12  O    2.989287   2.311673   1.453154   2.333467   2.293247
    13  C    6.031172   4.259196   3.710762   2.657702   1.386856
    14  C    6.290388   5.119224   4.643844   3.864332   2.394038
    15  C    5.529362   5.058837   4.599709   4.243942   2.773429
    16  C    4.259389   4.117220   3.608407   3.659965   2.441327
    17  H    3.986222   1.093548   2.090027   2.603793   3.502282
    18  H    2.883517   1.097058   2.150556   2.838800   2.936272
    19  H    5.347504   2.506540   2.123442   1.090593   2.198930
    20  H    6.902324   4.784079   4.281788   2.985480   2.155738
    21  H    7.306649   6.103733   5.678136   4.788325   3.379778
    22  H    6.121577   6.013983   5.614635   5.327098   3.859291
    23  H    3.912400   4.540965   4.107452   4.469770   3.423162
    24  H    5.560577   3.317772   2.111163   1.093677   2.157346
                   11         12         13         14         15
    11  C    0.000000
    12  O    1.384975   0.000000
    13  C    2.398918   3.590657   0.000000
    14  C    2.740206   4.117209   1.400762   0.000000
    15  C    2.365273   3.679059   2.431730   1.397046   0.000000
    16  C    1.383742   2.453653   2.839835   2.437950   1.400028
    17  H    3.785843   3.267894   4.559421   5.591352   5.764923
    18  H    2.729894   2.469463   3.935534   4.584548   4.451006
    19  H    3.196899   3.234794   3.025067   4.343271   4.921219
    20  H    3.389864   4.448886   1.086146   2.167930   3.418451
    21  H    3.825688   5.202303   2.154850   1.085542   2.152036
    22  H    3.354542   4.585423   3.410958   2.152061   1.085923
    23  H    2.159717   2.750648   3.924794   3.430152   2.179672
    24  H    2.918210   2.840083   3.128063   4.328873   4.747273
                   16         17         18         19         20
    16  C    0.000000
    17  H    4.985627   0.000000
    18  H    3.615621   1.795117   0.000000
    19  H    4.483781   2.217897   2.930701   0.000000
    20  H    3.925972   4.850685   4.550460   3.039831   0.000000
    21  H    3.414883   6.493645   5.526798   5.149147   2.493388
    22  H    2.148642   6.756707   5.329887   5.999035   4.310044
    23  H    1.085068   5.524110   4.037705   5.332880   5.010930
    24  H    4.195214   3.450924   3.867153   1.778356   3.325400
                   21         22         23         24
    21  H    0.000000
    22  H    2.471286   0.000000
    23  H    4.321755   2.504067   0.000000
    24  H    5.197985   5.809097   4.974432   0.000000
 Stoichiometry    C8H10N2O3S
 Framework group  C1[X(C8H10N2O3S)]
 Deg. of freedom    66
 Full point group                 C1      NOp   1
 Largest Abelian subgroup         C1      NOp   1
 Largest concise Abelian subgroup C1      NOp   1
                         Standard orientation:                         
 ---------------------------------------------------------------------
 Center     Atomic      Atomic             Coordinates (Angstroms)
 Number     Number       Type             X           Y           Z
 ---------------------------------------------------------------------
      1         16           0       -2.620417    0.106427    0.246362
      2          8           0       -3.383853   -0.744329   -0.667449
      3          8           0       -3.173407    0.410791    1.568350
      4          7           0       -2.406838    1.546175   -0.523553
      5          1           0       -2.001261    1.423424   -1.453536
      6          1           0       -1.836907    2.191949    0.027345
      7          6           0       -1.015714   -0.667227    0.557726
      8          7           0       -0.292064   -0.892604   -0.679070
      9          6           0        0.864571   -1.808847   -0.466724
     10          6           0        1.973160   -0.870393   -0.075309
     11          6           0        1.569826    0.400881   -0.456268
     12          8           0        0.304561    0.387976   -1.019378
     13          6           0        3.225433   -1.053347    0.491884
     14          6           0        4.049587    0.066643    0.660782
     15          6           0        3.620602    1.335040    0.262189
     16          6           0        2.357154    1.529209   -0.308842
     17          1           0       -1.267112   -1.627094    1.017402
     18          1           0       -0.491859   -0.029538    1.280545
     19          1           0        0.608542   -2.556667    0.284679
     20          1           0        3.560705   -2.041226    0.794206
     21          1           0        5.032152   -0.052694    1.106569
     22          1           0        4.273116    2.191517    0.403265
     23          1           0        2.008866    2.509326   -0.617772
     24          1           0        1.086615   -2.314086   -1.410948
 ---------------------------------------------------------------------
 Rotational constants (GHZ):           1.5895126           0.3448587           0.3205909
 General basis read from cards:  (6D, 7F)
 There are   290 symmetry adapted cartesian basis functions of A   symmetry.
 There are   290 symmetry adapted basis functions of A   symmetry.
   290 basis functions,   512 primitive gaussians,   290 cartesian basis functions
    56 alpha electrons       56 beta electrons
       nuclear repulsion energy      1053.1848601119 Hartrees.
 NAtoms=   24 NActive=   24 NUniq=   24 SFac= 1.00D+00 NAtFMM=   60 NAOKFM=F Big=F
 Integral buffers will be    131072 words long.
 Raffenetti 2 integral format.
 Two-electron integral symmetry is turned on.
 One-electron integrals computed using PRISM.
 NBasis=   290 RedAO= T EigKep=  2.15D-06  NBF=   290
 NBsUse=   290 1.00D-06 EigRej= -1.00D+00 NBFU=   290
 ExpMin= 4.05D-02 ExpMax= 2.19D+04 ExpMxC= 3.30D+03 IAcc=3 IRadAn=         5 AccDes= 0.00D+00
 Harris functional with IExCor= 1009 and IRadAn=       5 diagonalized for initial guess.
 HarFok:  IExCor= 1009 AccDes= 0.00D+00 IRadAn=         5 IDoV= 1 UseB2=F ITyADJ=14
 ICtDFT=  3500011 ScaDFX=  1.000000  1.000000  1.000000  1.000000
 FoFCou: FMM=F IPFlag=           0 FMFlag=      100000 FMFlg1=           0
         NFxFlg=           0 DoJE=T BraDBF=F KetDBF=T FulRan=T
         wScrn=  0.000000 ICntrl=       500 IOpCl=  0 I1Cent=   200000004 NGrid=           0
         NMat0=    1 NMatS0=      1 NMatT0=    0 NMatD0=    1 NMtDS0=    0 NMtDT0=    0
 Petite list used in FoFCou.
 Requested convergence on RMS density matrix=1.00D-08 within 128 cycles.
 Requested convergence on MAX density matrix=1.00D-06.
 Requested convergence on             energy=1.00D-06.
 No special actions if energy rises.
 SCF Done:  E(RM062X) =  -1043.82086633     A.U. after   15 cycles
            NFock= 15  Conv=0.75D-08     -V/T= 2.0066

 **********************************************************************

            Population analysis using the SCF Density.

 **********************************************************************

 Orbital symmetries:
       Occupied  (A) (A) (A) (A) (A) (A) (A) (A) (A) (A) (A) (A)
                 (A) (A) (A) (A) (A) (A) (A) (A) (A) (A) (A) (A)
                 (A) (A) (A) (A) (A) (A) (A) (A) (A) (A) (A) (A)
                 (A) (A) (A) (A) (A) (A) (A) (A) (A) (A) (A) (A)
                 (A) (A) (A) (A) (A) (A) (A) (A)
       Virtual   (A) (A) (A) (A) (A) (A) (A) (A) (A) (A) (A) (A)
                 (A) (A) (A) (A) (A) (A) (A) (A) (A) (A) (A) (A)
                 (A) (A) (A) (A) (A) (A) (A) (A) (A) (A) (A) (A)
                 (A) (A) (A) (A) (A) (A) (A) (A) (A) (A) (A) (A)
                 (A) (A) (A) (A) (A) (A) (A) (A) (A) (A) (A) (A)
                 (A) (A) (A) (A) (A) (A) (A) (A) (A) (A) (A) (A)
                 (A) (A) (A) (A) (A) (A) (A) (A) (A) (A) (A) (A)
                 (A) (A) (A) (A) (A) (A) (A) (A) (A) (A) (A) (A)
                 (A) (A) (A) (A) (A) (A) (A) (A) (A) (A) (A) (A)
                 (A) (A) (A) (A) (A) (A) (A) (A) (A) (A) (A) (A)
                 (A) (A) (A) (A) (A) (A) (A) (A) (A) (A) (A) (A)
                 (A) (A) (A) (A) (A) (A) (A) (A) (A) (A) (A) (A)
                 (A) (A) (A) (A) (A) (A) (A) (A) (A) (A) (A) (A)
                 (A) (A) (A) (A) (A) (A) (A) (A) (A) (A) (A) (A)
                 (A) (A) (A) (A) (A) (A) (A) (A) (A) (A) (A) (A)
                 (A) (A) (A) (A) (A) (A) (A) (A) (A) (A) (A) (A)
                 (A) (A) (A) (A) (A) (A) (A) (A) (A) (A) (A) (A)
                 (A) (A) (A) (A) (A) (A) (A) (A) (A) (A) (A) (A)
                 (A) (A) (A) (A) (A) (A) (A) (A) (A) (A) (A) (A)
                 (A) (A) (A) (A) (A) (A)
 The electronic state is 1-A.
 Alpha  occ. eigenvalues --  -90.16325 -19.73056 -19.63905 -19.63736 -14.86124
 Alpha  occ. eigenvalues --  -14.80676 -10.63736 -10.63409 -10.62134 -10.58900
 Alpha  occ. eigenvalues --  -10.58809 -10.58537 -10.58457 -10.57811  -8.47369
 Alpha  occ. eigenvalues --   -6.39583  -6.39508  -6.39433  -1.26216  -1.23743
 Alpha  occ. eigenvalues --   -1.11938  -1.03398  -1.02524  -0.99266  -0.90926
 Alpha  occ. eigenvalues --   -0.86979  -0.85089  -0.76670  -0.72681  -0.72458
 Alpha  occ. eigenvalues --   -0.70441  -0.64092  -0.62449  -0.61647  -0.60922
 Alpha  occ. eigenvalues --   -0.59306  -0.57084  -0.56165  -0.54353  -0.53312
 Alpha  occ. eigenvalues --   -0.52660  -0.51320  -0.50833  -0.49172  -0.48071
 Alpha  occ. eigenvalues --   -0.45237  -0.44000  -0.42976  -0.41250  -0.39384
 Alpha  occ. eigenvalues --   -0.38886  -0.38022  -0.37232  -0.34919  -0.33445
 Alpha  occ. eigenvalues --   -0.30458
 Alpha virt. eigenvalues --   -0.01313  -0.00440   0.00532   0.00717   0.01269
 Alpha virt. eigenvalues --    0.02872   0.03086   0.03464   0.04124   0.04350
 Alpha virt. eigenvalues --    0.05708   0.05904   0.06150   0.07215   0.07824
 Alpha virt. eigenvalues --    0.08140   0.08640   0.08886   0.09756   0.10187
 Alpha virt. eigenvalues --    0.10681   0.11517   0.12006   0.12381   0.12761
 Alpha virt. eigenvalues --    0.13489   0.13743   0.14146   0.14386   0.15116
 Alpha virt. eigenvalues --    0.15388   0.16091   0.16786   0.17353   0.17684
 Alpha virt. eigenvalues --    0.18540   0.18584   0.19166   0.19350   0.19758
 Alpha virt. eigenvalues --    0.19834   0.20333   0.21375   0.22198   0.22570
 Alpha virt. eigenvalues --    0.22856   0.23405   0.23912   0.24397   0.24839
 Alpha virt. eigenvalues --    0.25429   0.25700   0.26203   0.26616   0.27179
 Alpha virt. eigenvalues --    0.27935   0.28857   0.29464   0.29600   0.30304
 Alpha virt. eigenvalues --    0.31034   0.31883   0.32111   0.32586   0.33964
 Alpha virt. eigenvalues --    0.34235   0.34723   0.35287   0.35897   0.36834
 Alpha virt. eigenvalues --    0.37118   0.38234   0.38504   0.38900   0.39912
 Alpha virt. eigenvalues --    0.41876   0.42073   0.43755   0.44524   0.46361
 Alpha virt. eigenvalues --    0.47529   0.48430   0.57527   0.59951   0.61712
 Alpha virt. eigenvalues --    0.63743   0.64854   0.66366   0.68580   0.69639
 Alpha virt. eigenvalues --    0.71206   0.71744   0.72454   0.75312   0.75780
 Alpha virt. eigenvalues --    0.76802   0.77335   0.77661   0.79709   0.80470
 Alpha virt. eigenvalues --    0.82353   0.83162   0.84704   0.84956   0.86280
 Alpha virt. eigenvalues --    0.90760   0.93285   0.93628   0.95841   0.96468
 Alpha virt. eigenvalues --    0.97130   0.98557   0.99399   1.00800   1.01910
 Alpha virt. eigenvalues --    1.03261   1.04162   1.05318   1.05639   1.07955
 Alpha virt. eigenvalues --    1.09850   1.11133   1.11333   1.12940   1.13755
 Alpha virt. eigenvalues --    1.14847   1.15869   1.17358   1.17832   1.19796
 Alpha virt. eigenvalues --    1.21425   1.21810   1.22988   1.26069   1.28090
 Alpha virt. eigenvalues --    1.29122   1.31698   1.33948   1.35436   1.35588
 Alpha virt. eigenvalues --    1.36767   1.38094   1.40173   1.41202   1.41590
 Alpha virt. eigenvalues --    1.42370   1.43374   1.44367   1.45438   1.45557
 Alpha virt. eigenvalues --    1.48355   1.50834   1.52066   1.52133   1.56791
 Alpha virt. eigenvalues --    1.62592   1.64269   1.66094   1.71250   1.72064
 Alpha virt. eigenvalues --    1.76377   1.79435   1.80770   1.82581   1.83565
 Alpha virt. eigenvalues --    1.84349   1.86398   1.87463   1.88547   1.91328
 Alpha virt. eigenvalues --    1.92700   1.94901   1.96290   1.97702   1.98537
 Alpha virt. eigenvalues --    2.00383   2.01176   2.03197   2.04158   2.04724
 Alpha virt. eigenvalues --    2.07944   2.10226   2.11020   2.14483   2.15803
 Alpha virt. eigenvalues --    2.16861   2.17432   2.18405   2.21098   2.23472
 Alpha virt. eigenvalues --    2.24692   2.26844   2.28389   2.30201   2.32045
 Alpha virt. eigenvalues --    2.34977   2.38525   2.39549   2.46138   2.48946
 Alpha virt. eigenvalues --    2.51331   2.52689   2.55067   2.57251   2.63227
 Alpha virt. eigenvalues --    2.65743   2.66691   2.68518   2.73415   2.75347
 Alpha virt. eigenvalues --    2.79889   2.82800   2.85920   2.89341   2.95833
 Alpha virt. eigenvalues --    2.98050   3.04288   3.08103   3.20107   3.43038
 Alpha virt. eigenvalues --    3.89183   4.06533   4.14808   4.20489   4.23148
 Alpha virt. eigenvalues --    4.25883   4.28091   4.35239   4.40986   4.42313
 Alpha virt. eigenvalues --    4.47645   4.53711   4.68046   4.85428
          Condensed to atoms (all electrons):
               1          2          3          4          5          6
     1  S   14.455014   0.363894   0.347428  -0.543439   0.071147   0.044157
     2  O    0.363894   8.671010  -0.188943  -0.192339   0.001250   0.009795
     3  O    0.347428  -0.188943   8.734693  -0.153848   0.010345  -0.003922
     4  N   -0.543439  -0.192339  -0.153848   8.508437   0.186160   0.203154
     5  H    0.071147   0.001250   0.010345   0.186160   0.310471  -0.022025
     6  H    0.044157   0.009795  -0.003922   0.203154  -0.022025   0.317479
     7  C   -0.171473  -0.135309  -0.182836   0.056369  -0.038497  -0.004486
     8  N    0.121127   0.036568   0.009894  -0.004466   0.002388   0.001370
     9  C   -0.090879   0.002869  -0.022878   0.022985  -0.005523  -0.003863
    10  C    0.092349   0.030225   0.016953  -0.090840   0.030376  -0.014160
    11  C   -0.004396  -0.030245   0.009846   0.014936   0.003194   0.009405
    12  O   -0.029119  -0.004073  -0.001145  -0.031252   0.004642  -0.003261
    13  C   -0.010878  -0.001194  -0.006646   0.010230   0.001986  -0.002031
    14  C   -0.004420   0.000362   0.000604   0.002804  -0.000046  -0.000183
    15  C   -0.017254  -0.001121  -0.002264   0.017636  -0.003427   0.002509
    16  C   -0.020892  -0.010373  -0.003337   0.072127  -0.022712   0.003415
    17  H   -0.022516  -0.008853  -0.001371   0.015517  -0.000112  -0.000094
    18  H   -0.001943   0.009121   0.007653  -0.019513   0.000712   0.000207
    19  H    0.002284   0.000137   0.000099  -0.000019  -0.000001  -0.000000
    20  H   -0.000006   0.000000  -0.000000  -0.000000  -0.000000  -0.000000
    21  H   -0.000014   0.000000  -0.000000  -0.000000   0.000000   0.000000
    22  H   -0.000033  -0.000000  -0.000000   0.000003  -0.000000  -0.000000
    23  H    0.000067   0.000001  -0.000003  -0.000029   0.000003  -0.000012
    24  H   -0.000299  -0.000084   0.000001   0.000096   0.000001   0.000000
               7          8          9         10         11         12
     1  S   -0.171473   0.121127  -0.090879   0.092349  -0.004396  -0.029119
     2  O   -0.135309   0.036568   0.002869   0.030225  -0.030245  -0.004073
     3  O   -0.182836   0.009894  -0.022878   0.016953   0.009846  -0.001145
     4  N    0.056369  -0.004466   0.022985  -0.090840   0.014936  -0.031252
     5  H   -0.038497   0.002388  -0.005523   0.030376   0.003194   0.004642
     6  H   -0.004486   0.001370  -0.003863  -0.014160   0.009405  -0.003261
     7  C    6.750557   0.027574  -0.147138   0.170143  -0.275073  -0.043155
     8  N    0.027574   7.475248  -0.225344  -1.332736   1.541292  -0.121417
     9  C   -0.147138  -0.225344   7.613171   0.797067  -2.360333   0.022863
    10  C    0.170143  -1.332736   0.797067  18.114637  -5.214360   0.673395
    11  C   -0.275073   1.541292  -2.360333  -5.214360  17.435097  -0.300228
    12  O   -0.043155  -0.121417   0.022863   0.673395  -0.300228   8.468958
    13  C   -0.105780  -0.271086   0.171162  -4.066744  -1.316799   0.053178
    14  C    0.019213  -0.132952   0.238856   0.686792  -1.381605   0.029751
    15  C    0.012674   0.085842  -0.151401  -1.525367   0.596991  -0.037209
    16  C   -0.001631   0.202830  -0.269690  -3.168750  -2.441925  -0.544256
    17  H    0.370816  -0.033644   0.000626  -0.052086   0.042913   0.007522
    18  H    0.290040  -0.039771   0.050600   0.024017  -0.047423   0.002125
    19  H    0.007241  -0.056036   0.400850  -0.068488  -0.028444   0.010463
    20  H   -0.000416   0.001854  -0.013004   0.083749   0.082050  -0.000830
    21  H   -0.000003  -0.000073   0.001563   0.037670  -0.013740   0.000157
    22  H   -0.000106   0.000295   0.000262  -0.007973   0.015915  -0.000614
    23  H    0.000521   0.000700   0.003284   0.035230   0.008548  -0.001945
    24  H    0.002781  -0.049765   0.418674   0.024929  -0.109554   0.005766
              13         14         15         16         17         18
     1  S   -0.010878  -0.004420  -0.017254  -0.020892  -0.022516  -0.001943
     2  O   -0.001194   0.000362  -0.001121  -0.010373  -0.008853   0.009121
     3  O   -0.006646   0.000604  -0.002264  -0.003337  -0.001371   0.007653
     4  N    0.010230   0.002804   0.017636   0.072127   0.015517  -0.019513
     5  H    0.001986  -0.000046  -0.003427  -0.022712  -0.000112   0.000712
     6  H   -0.002031  -0.000183   0.002509   0.003415  -0.000094   0.000207
     7  C   -0.105780   0.019213   0.012674  -0.001631   0.370816   0.290040
     8  N   -0.271086  -0.132952   0.085842   0.202830  -0.033644  -0.039771
     9  C    0.171162   0.238856  -0.151401  -0.269690   0.000626   0.050600
    10  C   -4.066744   0.686792  -1.525367  -3.168750  -0.052086   0.024017
    11  C   -1.316799  -1.381605   0.596991  -2.441925   0.042913  -0.047423
    12  O    0.053178   0.029751  -0.037209  -0.544256   0.007522   0.002125
    13  C   14.735560  -0.620545   1.195405  -2.903131  -0.016072  -0.039098
    14  C   -0.620545   6.013214   0.132731   0.749446  -0.000227   0.013840
    15  C    1.195405   0.132731   5.986971  -0.249391   0.000707  -0.014871
    16  C   -2.903131   0.749446  -0.249391  14.065371   0.009673   0.038430
    17  H   -0.016072  -0.000227   0.000707   0.009673   0.421881  -0.022336
    18  H   -0.039098   0.013840  -0.014871   0.038430  -0.022336   0.462305
    19  H    0.020878   0.009349  -0.001885   0.014643   0.002898   0.001061
    20  H    0.187789  -0.021413  -0.001348  -0.018511  -0.000001  -0.000002
    21  H   -0.032778   0.301043   0.005976   0.012602  -0.000000  -0.000000
    22  H    0.006324   0.018540   0.288419  -0.009687   0.000000  -0.000001
    23  H   -0.013880   0.001612   0.003229   0.265540  -0.000000  -0.000019
    24  H    0.035973  -0.003391   0.002478  -0.025757   0.000014  -0.000318
              19         20         21         22         23         24
     1  S    0.002284  -0.000006  -0.000014  -0.000033   0.000067  -0.000299
     2  O    0.000137   0.000000   0.000000  -0.000000   0.000001  -0.000084
     3  O    0.000099  -0.000000  -0.000000  -0.000000  -0.000003   0.000001
     4  N   -0.000019  -0.000000  -0.000000   0.000003  -0.000029   0.000096
     5  H   -0.000001  -0.000000   0.000000  -0.000000   0.000003   0.000001
     6  H   -0.000000  -0.000000   0.000000  -0.000000  -0.000012   0.000000
     7  C    0.007241  -0.000416  -0.000003  -0.000106   0.000521   0.002781
     8  N   -0.056036   0.001854  -0.000073   0.000295   0.000700  -0.049765
     9  C    0.400850  -0.013004   0.001563   0.000262   0.003284   0.418674
    10  C   -0.068488   0.083749   0.037670  -0.007973   0.035230   0.024929
    11  C   -0.028444   0.082050  -0.013740   0.015915   0.008548  -0.109554
    12  O    0.010463  -0.000830   0.000157  -0.000614  -0.001945   0.005766
    13  C    0.020878   0.187789  -0.032778   0.006324  -0.013880   0.035973
    14  C    0.009349  -0.021413   0.301043   0.018540   0.001612  -0.003391
    15  C   -0.001885  -0.001348   0.005976   0.288419   0.003229   0.002478
    16  C    0.014643  -0.018511   0.012602  -0.009687   0.265540  -0.025757
    17  H    0.002898  -0.000001  -0.000000   0.000000  -0.000000   0.000014
    18  H    0.001061  -0.000002  -0.000000  -0.000001  -0.000019  -0.000318
    19  H    0.478843   0.000577   0.000001  -0.000000   0.000002  -0.029503
    20  H    0.000577   0.481662  -0.003027  -0.000127   0.000014   0.000275
    21  H    0.000001  -0.003027   0.480488  -0.003528  -0.000111   0.000001
    22  H   -0.000000  -0.000127  -0.003528   0.478786  -0.003136   0.000000
    23  H    0.000002   0.000014  -0.000111  -0.003136   0.471610   0.000003
    24  H   -0.029503   0.000275   0.000001   0.000000   0.000003   0.463006
 Mulliken charges:
               1
     1  S    1.420095
     2  O   -0.552696
     3  O   -0.570323
     4  N   -1.074708
     5  H    0.469668
     6  H    0.462546
     7  C   -0.602024
     8  N   -0.239691
     9  C   -0.454780
    10  C    0.723972
    11  C   -0.236061
    12  O   -0.160315
    13  C   -1.011826
    14  C   -0.053373
    15  C   -0.326031
    16  C    0.255965
    17  H    0.284745
    18  H    0.285188
    19  H    0.235051
    20  H    0.220714
    21  H    0.213773
    22  H    0.216663
    23  H    0.228773
    24  H    0.264674
 Sum of Mulliken charges =  -0.00000
 Mulliken charges with hydrogens summed into heavy atoms:
               1
     1  S    1.420095
     2  O   -0.552696
     3  O   -0.570323
     4  N   -0.142493
     7  C   -0.032091
     8  N   -0.239691
     9  C    0.044944
    10  C    0.723972
    11  C   -0.236061
    12  O   -0.160315
    13  C   -0.791112
    14  C    0.160400
    15  C   -0.109368
    16  C    0.484738
 Electronic spatial extent (au):  <R**2>=           3417.7333
 Charge=             -0.0000 electrons
 Dipole moment (field-independent basis, Debye):
    X=              7.8049    Y=              0.2137    Z=              0.2829  Tot=              7.8130
 Quadrupole moment (field-independent basis, Debye-Ang):
   XX=           -109.1783   YY=            -77.1995   ZZ=            -95.3542
   XY=             -2.5256   XZ=              5.0185   YZ=             -4.8235
 Traceless Quadrupole moment (field-independent basis, Debye-Ang):
   XX=            -15.2676   YY=             16.7112   ZZ=             -1.4436
   XY=             -2.5256   XZ=              5.0185   YZ=             -4.8235
 Octapole moment (field-independent basis, Debye-Ang**2):
  XXX=            107.8179  YYY=              4.1334  ZZZ=            -13.9827  XYY=              7.9315
  XXY=              7.2540  XXZ=              4.5607  XZZ=             -1.8046  YZZ=             -1.3932
  YYZ=              0.8342  XYZ=              9.0071
 Hexadecapole moment (field-independent basis, Debye-Ang**3):
 XXXX=          -3719.3346 YYYY=           -607.5143 ZZZZ=           -363.0188 XXXY=             19.6081
 XXXZ=            113.1509 YYYX=              1.4609 YYYZ=             -9.3882 ZZZX=             15.7409
 ZZZY=             -8.1521 XXYY=           -675.0081 XXZZ=           -715.3471 YYZZ=           -166.8690
 XXYZ=            -30.4104 YYXZ=             -9.2997 ZZXY=             -9.7543
 N-N= 1.053184860112D+03 E-N=-4.555436524560D+03  KE= 1.036985799129D+03
 Calling FoFJK, ICntrl=      2127 FMM=F ISym2X=0 I1Cent= 0 IOpClX= 0 NMat=1 NMatS=1 NMatT=0.
 ***** Axes restored to original set *****
 -------------------------------------------------------------------
 Center     Atomic                   Forces (Hartrees/Bohr)
 Number     Number              X              Y              Z
 -------------------------------------------------------------------
      1       16          -0.028938512    0.024394927    0.012888816
      2        8           0.005472903   -0.015209939   -0.005375134
      3        8           0.013359511   -0.001717299   -0.006571624
      4        7           0.010680354   -0.007885312   -0.001319614
      5        1          -0.002519203    0.000325920    0.000193668
      6        1          -0.001226347    0.003336397    0.001524654
      7        6           0.001927545   -0.000725347    0.001039876
      8        7           0.000797190   -0.004685522   -0.003190558
      9        6           0.002130302    0.000969759    0.003942692
     10        6           0.000513379   -0.002752185   -0.001923323
     11        6          -0.000998933    0.005065307    0.004911864
     12        8          -0.000864012   -0.001831882   -0.004771063
     13        6           0.000640836   -0.000829628    0.001339952
     14        6          -0.000110471    0.000255821    0.000016986
     15        6          -0.000482161    0.000863442    0.000095551
     16        6          -0.000109994   -0.000814741   -0.001824457
     17        1          -0.000006922    0.000601220    0.001312600
     18        1           0.000314980   -0.001170159   -0.001509961
     19        1          -0.000826928    0.000505723   -0.000296920
     20        1           0.000130595   -0.000381047   -0.000216690
     21        1          -0.000018540    0.000111809    0.000277229
     22        1          -0.000092662    0.000147995   -0.000221673
     23        1           0.000083753    0.000281624   -0.000354337
     24        1           0.000143336    0.001143119    0.000031466
 -------------------------------------------------------------------
 Cartesian Forces:  Max     0.028938512 RMS     0.005866517

 GradGradGradGradGradGradGradGradGradGradGradGradGradGradGradGradGradGrad
 Berny optimization.
 FormGI is forming the generalized inverse of G from B-inverse, IUseBI=4.
 Internal  Forces:  Max     0.015252604 RMS     0.002483105
 Search for a local minimum.
 Step number   1 out of a maximum of  139
 All quantities printed in internal units (Hartrees-Bohrs-Radians)
 Mixed Optimization -- RFO/linear search
 Second derivative matrix not updated -- first step.
 ITU=  0
     Eigenvalues ---    0.00258   0.00780   0.01023   0.01511   0.01731
     Eigenvalues ---    0.02003   0.02097   0.02110   0.02113   0.02170
     Eigenvalues ---    0.02188   0.02207   0.02217   0.04418   0.04634
     Eigenvalues ---    0.04965   0.05424   0.05819   0.07238   0.07722
     Eigenvalues ---    0.08496   0.08580   0.08924   0.09236   0.12633
     Eigenvalues ---    0.13835   0.15853   0.15999   0.16000   0.16000
     Eigenvalues ---    0.16000   0.16000   0.16000   0.18687   0.19303
     Eigenvalues ---    0.22000   0.22056   0.22622   0.24065   0.24638
     Eigenvalues ---    0.25000   0.25461   0.30961   0.31520   0.34010
     Eigenvalues ---    0.34391   0.34406   0.34744   0.35262   0.35288
     Eigenvalues ---    0.35333   0.35389   0.35806   0.38171   0.41028
     Eigenvalues ---    0.42350   0.43170   0.43955   0.44025   0.45123
     Eigenvalues ---    0.45787   0.46704   0.47120   0.47942   0.89561
     Eigenvalues ---    0.90178
 RFO step:  Lambda=-3.68624406D-03 EMin= 2.58275818D-03
 Linear search not attempted -- first point.
 Iteration  1 RMS(Cart)=  0.05643031 RMS(Int)=  0.00136276
 Iteration  2 RMS(Cart)=  0.00224764 RMS(Int)=  0.00019554
 Iteration  3 RMS(Cart)=  0.00000347 RMS(Int)=  0.00019552
 Iteration  4 RMS(Cart)=  0.00000000 RMS(Int)=  0.00019552
 Variable       Old X    -DE/DX   Delta X   Delta X   Delta X     New X
                                 (Linear)    (Quad)   (Total)
    R1        2.76551  -0.01525   0.00000  -0.01684  -0.01684   2.74866
    R2        2.76836  -0.01208   0.00000  -0.01343  -0.01343   2.75493
    R3        3.11160   0.00646   0.00000   0.01484   0.01484   3.12645
    R4        3.41751   0.00289   0.00000   0.01120   0.01120   3.42871
    R5        1.93125  -0.00218   0.00000  -0.00492  -0.00492   1.92633
    R6        1.93209  -0.00345   0.00000  -0.00778  -0.00778   1.92431
    R7        2.74116   0.00075   0.00000   0.00194   0.00194   2.74311
    R8        2.06651  -0.00048   0.00000  -0.00137  -0.00137   2.06514
    R9        2.07314   0.00120   0.00000   0.00350   0.00350   2.07664
   R10        2.81715  -0.00229   0.00000  -0.00720  -0.00717   2.80998
   R11        2.74606  -0.00225   0.00000  -0.00658  -0.00655   2.73951
   R12        2.84269   0.00130   0.00000   0.00439   0.00438   2.84706
   R13        2.06092   0.00094   0.00000   0.00267   0.00267   2.06359
   R14        2.06675   0.00088   0.00000   0.00252   0.00252   2.06927
   R15        2.62117  -0.00041   0.00000  -0.00019  -0.00023   2.62094
   R16        2.62078  -0.00018   0.00000  -0.00028  -0.00028   2.62050
   R17        2.61722  -0.00466   0.00000  -0.00952  -0.00953   2.60769
   R18        2.61489  -0.00008   0.00000  -0.00009  -0.00009   2.61480
   R19        2.64706  -0.00134   0.00000  -0.00299  -0.00300   2.64406
   R20        2.05252   0.00006   0.00000   0.00016   0.00016   2.05268
   R21        2.64003  -0.00131   0.00000  -0.00297  -0.00297   2.63707
   R22        2.05138  -0.00029   0.00000  -0.00080  -0.00080   2.05058
   R23        2.64567  -0.00093   0.00000  -0.00212  -0.00212   2.64355
   R24        2.05210  -0.00020   0.00000  -0.00057  -0.00057   2.05153
   R25        2.05048  -0.00038   0.00000  -0.00105  -0.00105   2.04943
    A1        2.07985   0.00637   0.00000   0.06765   0.06744   2.14729
    A2        1.85877   0.00228   0.00000   0.00546   0.00423   1.86300
    A3        1.89833  -0.00256   0.00000  -0.02030  -0.02059   1.87774
    A4        1.86424   0.00267   0.00000   0.00875   0.00748   1.87172
    A5        1.84259  -0.00351   0.00000  -0.02433  -0.02452   1.81807
    A6        1.91714  -0.00625   0.00000  -0.04532  -0.04608   1.87107
    A7        1.95190  -0.00127   0.00000  -0.00376  -0.00380   1.94811
    A8        1.95264   0.00103   0.00000   0.01025   0.01022   1.96286
    A9        1.92299   0.00097   0.00000   0.01284   0.01277   1.93577
   A10        1.94157   0.00080   0.00000   0.00396   0.00393   1.94550
   A11        1.81716  -0.00208   0.00000  -0.01822  -0.01818   1.79898
   A12        1.86343   0.00179   0.00000   0.01791   0.01794   1.88137
   A13        1.91422   0.00086   0.00000   0.00327   0.00326   1.91748
   A14        1.99750  -0.00161   0.00000  -0.00815  -0.00824   1.98926
   A15        1.92094   0.00021   0.00000   0.00053   0.00061   1.92155
   A16        1.94025   0.00330   0.00000   0.02378   0.02372   1.96397
   A17        1.84167  -0.00053   0.00000   0.00435   0.00420   1.84588
   A18        1.83012  -0.00066   0.00000  -0.00049  -0.00059   1.82953
   A19        1.79816   0.00025   0.00000   0.00124   0.00130   1.79946
   A20        1.91499  -0.00043   0.00000  -0.00299  -0.00301   1.91197
   A21        1.89491  -0.00025   0.00000  -0.00365  -0.00367   1.89124
   A22        2.00591   0.00007   0.00000   0.00233   0.00232   2.00823
   A23        1.94252   0.00054   0.00000   0.00533   0.00531   1.94783
   A24        1.90258  -0.00018   0.00000  -0.00258  -0.00260   1.89998
   A25        1.86087  -0.00194   0.00000  -0.00692  -0.00694   1.85393
   A26        2.33167   0.00146   0.00000   0.00494   0.00495   2.33663
   A27        2.08955   0.00047   0.00000   0.00185   0.00186   2.09141
   A28        1.94849   0.00073   0.00000   0.00323   0.00321   1.95170
   A29        2.15632  -0.00143   0.00000  -0.00546  -0.00545   2.15087
   A30        2.17818   0.00070   0.00000   0.00225   0.00226   2.18044
   A31        1.86302   0.00126   0.00000   0.00206   0.00212   1.86514
   A32        2.06588   0.00029   0.00000   0.00145   0.00145   2.06732
   A33        2.10895   0.00032   0.00000   0.00211   0.00211   2.11106
   A34        2.10836  -0.00061   0.00000  -0.00356  -0.00356   2.10480
   A35        2.10698  -0.00035   0.00000  -0.00193  -0.00193   2.10505
   A36        2.08767   0.00026   0.00000   0.00151   0.00151   2.08918
   A37        2.08853   0.00008   0.00000   0.00042   0.00042   2.08895
   A38        2.11694   0.00027   0.00000   0.00076   0.00076   2.11770
   A39        2.08806  -0.00034   0.00000  -0.00161  -0.00161   2.08645
   A40        2.07815   0.00007   0.00000   0.00086   0.00086   2.07901
   A41        2.03068   0.00074   0.00000   0.00331   0.00331   2.03399
   A42        2.12184  -0.00046   0.00000  -0.00222  -0.00222   2.11963
   A43        2.13066  -0.00028   0.00000  -0.00109  -0.00109   2.12957
    D1       -0.92359   0.00557   0.00000   0.04576   0.04595  -0.87765
    D2       -3.09043   0.00448   0.00000   0.02394   0.02410  -3.06633
    D3        3.11945  -0.00522   0.00000  -0.04509  -0.04530   3.07415
    D4        0.95261  -0.00631   0.00000  -0.06690  -0.06714   0.88547
    D5        1.12926   0.00055   0.00000   0.00106   0.00113   1.13039
    D6       -1.03757  -0.00054   0.00000  -0.02075  -0.02072  -1.05829
    D7        0.99699  -0.00141   0.00000   0.04331   0.04363   1.04062
    D8       -1.06340  -0.00162   0.00000   0.04796   0.04828  -1.01512
    D9       -3.09558  -0.00167   0.00000   0.04806   0.04847  -3.04711
   D10       -3.03511   0.00249   0.00000   0.09764   0.09723  -2.93788
   D11        1.18768   0.00228   0.00000   0.10230   0.10188   1.28957
   D12       -0.84449   0.00223   0.00000   0.10239   0.10207  -0.74242
   D13       -1.03108   0.00079   0.00000   0.07353   0.07354  -0.95755
   D14       -3.09148   0.00058   0.00000   0.07819   0.07819  -3.01329
   D15        1.15953   0.00053   0.00000   0.07829   0.07838   1.23791
   D16       -2.90554   0.00174   0.00000   0.04640   0.04645  -2.85909
   D17        1.40304   0.00126   0.00000   0.03350   0.03341   1.43645
   D18       -0.90471   0.00017   0.00000   0.02845   0.02851  -0.87620
   D19       -2.87931  -0.00031   0.00000   0.01555   0.01548  -2.86383
   D20        1.26381  -0.00006   0.00000   0.02570   0.02579   1.28961
   D21       -0.71079  -0.00054   0.00000   0.01280   0.01276  -0.69803
   D22       -1.53498  -0.00004   0.00000  -0.01277  -0.01279  -1.54777
   D23        0.60927  -0.00004   0.00000  -0.01083  -0.01084   0.59843
   D24        2.68696  -0.00067   0.00000  -0.01788  -0.01789   2.66906
   D25        0.44689   0.00049   0.00000   0.00293   0.00293   0.44983
   D26        2.59115   0.00049   0.00000   0.00488   0.00488   2.59603
   D27       -1.61435  -0.00013   0.00000  -0.00218  -0.00217  -1.61652
   D28        1.60392   0.00235   0.00000   0.02845   0.02839   1.63231
   D29       -0.44646  -0.00084   0.00000  -0.00010  -0.00009  -0.44655
   D30       -0.29768  -0.00037   0.00000  -0.00469  -0.00469  -0.30237
   D31        2.89631  -0.00025   0.00000  -0.00165  -0.00165   2.89466
   D32       -2.37997  -0.00004   0.00000  -0.00309  -0.00310  -2.38306
   D33        0.81402   0.00008   0.00000  -0.00005  -0.00005   0.81396
   D34        1.72988  -0.00029   0.00000  -0.00586  -0.00586   1.72402
   D35       -1.35932  -0.00017   0.00000  -0.00282  -0.00282  -1.36214
   D36        0.02789  -0.00005   0.00000   0.00516   0.00515   0.03305
   D37       -3.09331   0.00013   0.00000   0.00416   0.00415  -3.08916
   D38        3.12580  -0.00009   0.00000   0.00278   0.00279   3.12859
   D39        0.00460   0.00009   0.00000   0.00178   0.00179   0.00638
   D40        3.08265  -0.00015   0.00000  -0.00307  -0.00308   3.07957
   D41       -0.05481  -0.00015   0.00000  -0.00302  -0.00303  -0.05784
   D42       -0.00112   0.00003   0.00000   0.00047   0.00046  -0.00066
   D43       -3.13858   0.00003   0.00000   0.00051   0.00052  -3.13807
   D44        0.26583   0.00053   0.00000  -0.00349  -0.00349   0.26234
   D45       -2.89646   0.00032   0.00000  -0.00259  -0.00258  -2.89904
   D46       -0.00242  -0.00014   0.00000  -0.00257  -0.00257  -0.00498
   D47       -3.14100  -0.00021   0.00000  -0.00493  -0.00493   3.13725
   D48       -3.12092   0.00006   0.00000  -0.00369  -0.00370  -3.12462
   D49        0.02368   0.00000   0.00000  -0.00606  -0.00606   0.01762
   D50       -0.00425  -0.00009   0.00000  -0.00179  -0.00179  -0.00605
   D51        3.13703  -0.00002   0.00000  -0.00034  -0.00034   3.13669
   D52        3.13321  -0.00009   0.00000  -0.00182  -0.00183   3.13138
   D53       -0.00870  -0.00002   0.00000  -0.00037  -0.00037  -0.00907
   D54        0.00652   0.00003   0.00000   0.00096   0.00096   0.00749
   D55        3.13941   0.00010   0.00000   0.00230   0.00230  -3.14148
   D56       -3.13476  -0.00004   0.00000  -0.00049  -0.00049  -3.13525
   D57       -0.00187   0.00003   0.00000   0.00085   0.00084  -0.00103
   D58       -0.00313   0.00009   0.00000   0.00117   0.00117  -0.00196
   D59        3.13544   0.00015   0.00000   0.00355   0.00355   3.13899
   D60       -3.13606   0.00002   0.00000  -0.00015  -0.00015  -3.13621
   D61        0.00250   0.00008   0.00000   0.00223   0.00223   0.00473
         Item               Value     Threshold  Converged?
 Maximum Force            0.015253     0.000450     NO 
 RMS     Force            0.002483     0.000300     NO 
 Maximum Displacement     0.260849     0.001800     NO 
 RMS     Displacement     0.056750     0.001200     NO 
 Predicted change in Energy=-1.989000D-03
 GradGradGradGradGradGradGradGradGradGradGradGradGradGradGradGradGradGrad

                          Input orientation:                          
 ---------------------------------------------------------------------
 Center     Atomic      Atomic             Coordinates (Angstroms)
 Number     Number       Type             X           Y           Z
 ---------------------------------------------------------------------
      1         16           0       -2.323100    1.318192   -0.999921
      2          8           0       -2.285029    2.771965   -0.972497
      3          8           0       -3.524669    0.548940   -0.700252
      4          7           0       -1.135247    0.790942    0.023895
      5          1           0       -0.242865    1.243182   -0.171684
      6          1           0       -1.038053   -0.222691    0.017879
      7          6           0       -1.862987    0.789216   -2.673392
      8          7           0       -0.534294    1.252077   -3.030395
      9          6           0       -0.278737    1.176755   -4.493308
     10          6           0        0.266889   -0.215976   -4.673415
     11          6           0        0.657870   -0.644846   -3.413726
     12          8           0        0.385954    0.297989   -2.443500
     13          6           0        0.477696   -1.030613   -5.775636
     14          6           0        1.086743   -2.274712   -5.578217
     15          6           0        1.478160   -2.679639   -4.301433
     16          6           0        1.268163   -1.865175   -3.183626
     17          1           0       -2.609067    1.281457   -3.302143
     18          1           0       -1.985046   -0.301614   -2.726261
     19          1           0       -1.202572    1.385526   -5.036835
     20          1           0        0.181688   -0.711668   -6.770900
     21          1           0        1.257303   -2.930390   -6.425848
     22          1           0        1.949357   -3.648539   -4.168083
     23          1           0        1.565730   -2.169814   -2.186223
     24          1           0        0.464563    1.937674   -4.753226
 ---------------------------------------------------------------------
                    Distance matrix (angstroms):
                    1          2          3          4          5
     1  S    0.000000
     2  O    1.454531   0.000000
     3  O    1.457846   2.559817   0.000000
     4  N    1.654445   2.497849   2.508444   0.000000
     5  H    2.240308   2.673745   3.395819   1.019371   0.000000
     6  H    2.249796   3.391719   2.700811   1.018300   1.678404
     7  C    1.814393   2.646215   2.590791   2.793737   3.014867
     8  N    2.706847   3.100012   3.855685   3.146820   2.873541
     9  C    4.050083   4.354998   5.031649   4.613847   4.322283
    10  C    4.749344   5.397858   5.545000   5.004457   4.759682
    11  C    4.308846   5.127851   5.126568   4.134488   3.858342
    12  O    3.234765   3.926647   4.288923   2.940254   2.539675
    13  C    6.014049   6.720297   6.653828   6.289213   6.090453
    14  C    6.745130   7.619085   7.282353   6.761593   6.585896
    15  C    6.429014   7.413731   6.958486   6.130522   5.950233
    16  C    5.272529   6.246386   5.913234   4.808277   4.584417
    17  H    2.320205   2.784577   2.853900   3.670870   3.924303
    18  H    2.391297   3.551418   2.683019   3.078830   3.456508
    19  H    4.190082   4.428631   4.989785   5.095984   4.960946
    20  H    6.610483   7.200130   7.223502   7.082471   6.895747
    21  H    7.765978   8.648932   8.231370   7.821240   7.667058
    22  H    7.277331   8.328545   7.720728   6.840793   6.686252
    23  H    5.356911   6.381430   5.959185   4.576677   4.356365
    24  H    4.716155   4.748706   5.853985   5.166746   4.687569
                    6          7          8          9         10
     6  H    0.000000
     7  C    2.991222   0.000000
     8  N    3.423549   1.451591   0.000000
     9  C    4.783912   2.443794   1.486975   0.000000
    10  C    4.869411   3.089802   2.344481   1.506602   0.000000
    11  C    3.851011   2.993218   2.272997   2.315376   1.386944
    12  O    2.890898   2.313415   1.449685   2.327178   2.291475
    13  C    6.042768   4.291211   3.710949   2.662523   1.386709
    14  C    6.327863   5.150395   4.642995   3.867065   2.393579
    15  C    5.569954   5.083969   4.596075   4.242085   2.770412
    16  C    4.273877   4.136452   3.604108   3.655340   2.437597
    17  H    3.969017   1.092824   2.092700   2.619212   3.520485
    18  H    2.904019   1.098911   2.147355   2.866970   2.978247
    19  H    5.306935   2.525390   2.119010   1.092006   2.203678
    20  H    6.914795   4.819017   4.284892   2.994255   2.156945
    21  H    7.356760   6.136173   5.677319   4.791949   3.379347
    22  H    6.179267   6.038356   5.610605   5.324814   3.855975
    23  H    3.927982   4.555139   4.102690   4.463656   3.419151
    24  H    5.448713   3.325982   2.106159   1.095011   2.164175
                   11         12         13         14         15
    11  C    0.000000
    12  O    1.379933   0.000000
    13  C    2.399979   3.588415   0.000000
    14  C    2.743250   4.115379   1.399176   0.000000
    15  C    2.366703   3.675745   2.427651   1.395475   0.000000
    16  C    1.383693   2.450583   2.835462   2.436124   1.398908
    17  H    3.794203   3.267205   4.581696   5.611226   5.778779
    18  H    2.752348   2.461933   3.986881   4.632780   4.486643
    19  H    3.196582   3.229789   3.034279   4.351022   4.924703
    20  H    3.391435   4.448316   1.086231   2.164421   3.413505
    21  H    3.828304   5.200075   2.154001   1.085119   2.150533
    22  H    3.355468   4.581866   3.406398   2.149415   1.085622
    23  H    2.157892   2.747383   3.919882   3.427252   2.177545
    24  H    2.915654   2.833651   3.139462   4.337270   4.748797
                   16         17         18         19         20
    16  C    0.000000
    17  H    4.994822   0.000000
    18  H    3.638306   1.796429   0.000000
    19  H    4.483968   2.235668   2.966051   0.000000
    20  H    3.921675   4.877820   4.606732   3.053093   0.000000
    21  H    3.412741   6.515060   5.577655   5.158243   2.489726
    22  H    2.147921   6.770077   5.362861   6.002599   4.304012
    23  H    1.084511   5.530413   4.048434   5.331971   5.006098
    24  H    4.191787   3.461713   3.888905   1.778943   3.342161
                   21         22         23         24
    21  H    0.000000
    22  H    2.468234   0.000000
    23  H    4.318336   2.502312   0.000000
    24  H    5.208085   5.809714   4.967245   0.000000
 Stoichiometry    C8H10N2O3S
 Framework group  C1[X(C8H10N2O3S)]
 Deg. of freedom    66
 Full point group                 C1      NOp   1
 Largest Abelian subgroup         C1      NOp   1
 Largest concise Abelian subgroup C1      NOp   1
                         Standard orientation:                         
 ---------------------------------------------------------------------
 Center     Atomic      Atomic             Coordinates (Angstroms)
 Number     Number       Type             X           Y           Z
 ---------------------------------------------------------------------
      1         16           0       -2.661100    0.102491    0.251526
      2          8           0       -3.395845   -0.815797   -0.604370
      3          8           0       -3.135119    0.514112    1.567273
      4          7           0       -2.408970    1.478673   -0.631504
      5          1           0       -2.014278    1.269865   -1.547874
      6          1           0       -1.836633    2.159619   -0.135848
      7          6           0       -1.034335   -0.632804    0.575562
      8          7           0       -0.296474   -0.853556   -0.654863
      9          6           0        0.847750   -1.785742   -0.473541
     10          6           0        1.976119   -0.868721   -0.078948
     11          6           0        1.580569    0.410365   -0.441015
     12          8           0        0.311707    0.420735   -0.983321
     13          6           0        3.232995   -1.072482    0.470333
     14          6           0        4.072319    0.033629    0.642807
     15          6           0        3.653593    1.309443    0.262911
     16          6           0        2.386983    1.524664   -0.290551
     17          1           0       -1.283868   -1.591936    1.036066
     18          1           0       -0.513633    0.009486    1.299398
     19          1           0        0.587251   -2.544156    0.267690
     20          1           0        3.562774   -2.066836    0.757390
     21          1           0        5.058393   -0.101894    1.074983
     22          1           0        4.318965    2.155502    0.404471
     23          1           0        2.049398    2.511618   -0.587404
     24          1           0        1.045442   -2.279457   -1.430731
 ---------------------------------------------------------------------
 Rotational constants (GHZ):           1.6116995           0.3420340           0.3184877
 Basis read from rwf:  (6D, 7F)
 There are   290 symmetry adapted cartesian basis functions of A   symmetry.
 There are   290 symmetry adapted basis functions of A   symmetry.
   290 basis functions,   512 primitive gaussians,   290 cartesian basis functions
    56 alpha electrons       56 beta electrons
       nuclear repulsion energy      1053.0959335076 Hartrees.
 NAtoms=   24 NActive=   24 NUniq=   24 SFac= 1.00D+00 NAtFMM=   60 NAOKFM=F Big=F
 Integral buffers will be    131072 words long.
 Raffenetti 2 integral format.
 Two-electron integral symmetry is turned on.
 One-electron integrals computed using PRISM.
 NBasis=   290 RedAO= T EigKep=  2.14D-06  NBF=   290
 NBsUse=   290 1.00D-06 EigRej= -1.00D+00 NBFU=   290
 Initial guess from the checkpoint file:  "/jobfs/50065312.gadi-pbs/Gau-2570201.chk"
 B after Tr=    -0.000000    0.000000   -0.000000
         Rot=    0.999966    0.008120   -0.000599    0.001526 Ang=   0.95 deg.
 ExpMin= 4.05D-02 ExpMax= 2.19D+04 ExpMxC= 3.30D+03 IAcc=3 IRadAn=         5 AccDes= 0.00D+00
 Harris functional with IExCor= 1009 and IRadAn=       5 diagonalized for initial guess.
 HarFok:  IExCor= 1009 AccDes= 0.00D+00 IRadAn=         5 IDoV= 1 UseB2=F ITyADJ=14
 ICtDFT=  3500011 ScaDFX=  1.000000  1.000000  1.000000  1.000000
 FoFCou: FMM=F IPFlag=           0 FMFlag=      100000 FMFlg1=           0
         NFxFlg=           0 DoJE=T BraDBF=F KetDBF=T FulRan=T
         wScrn=  0.000000 ICntrl=       500 IOpCl=  0 I1Cent=   200000004 NGrid=           0
         NMat0=    1 NMatS0=      1 NMatT0=    0 NMatD0=    1 NMtDS0=    0 NMtDT0=    0
 Petite list used in FoFCou.
 Requested convergence on RMS density matrix=1.00D-08 within 128 cycles.
 Requested convergence on MAX density matrix=1.00D-06.
 Requested convergence on             energy=1.00D-06.
 No special actions if energy rises.
 SCF Done:  E(RM062X) =  -1043.82279667     A.U. after   13 cycles
            NFock= 13  Conv=0.94D-08     -V/T= 2.0066
 Calling FoFJK, ICntrl=      2127 FMM=F ISym2X=0 I1Cent= 0 IOpClX= 0 NMat=1 NMatS=1 NMatT=0.
 ***** Axes restored to original set *****
 -------------------------------------------------------------------
 Center     Atomic                   Forces (Hartrees/Bohr)
 Number     Number              X              Y              Z
 -------------------------------------------------------------------
      1       16          -0.003680572    0.001433995   -0.001346660
      2        8          -0.001034212   -0.006333352    0.000921079
      3        8           0.003995834    0.003750205    0.000734420
      4        7           0.002400380   -0.000009450    0.001701988
      5        1          -0.000904120    0.000289240   -0.000027317
      6        1          -0.001189700    0.000914494    0.000112229
      7        6           0.000663761   -0.000081318   -0.001174785
      8        7          -0.000133514   -0.001877146   -0.000450527
      9        6          -0.000075424    0.001234612    0.002070936
     10        6           0.000020030   -0.000563304   -0.001425680
     11        6          -0.000722425    0.002264477    0.002370254
     12        8           0.000081599   -0.001460386   -0.002181427
     13        6          -0.000062619    0.000219916    0.000333831
     14        6          -0.000032255   -0.000007514   -0.000315021
     15        6           0.000083809    0.000097520    0.000549979
     16        6           0.000217913   -0.000632082   -0.000597166
     17        1           0.000448137    0.000183899   -0.001302216
     18        1          -0.000048082    0.000557072    0.000234607
     19        1          -0.000058690    0.000070521   -0.000087954
     20        1          -0.000002139   -0.000029990   -0.000044871
     21        1          -0.000025413   -0.000002585   -0.000013640
     22        1           0.000010597   -0.000043898    0.000050530
     23        1           0.000059663    0.000000334    0.000080381
     24        1          -0.000012560    0.000024742   -0.000192972
 -------------------------------------------------------------------
 Cartesian Forces:  Max     0.006333352 RMS     0.001381950

 GradGradGradGradGradGradGradGradGradGradGradGradGradGradGradGradGradGrad
 Berny optimization.
 Using GEDIIS/GDIIS optimizer.
 FormGI is forming the generalized inverse of G from B-inverse, IUseBI=4.
 Internal  Forces:  Max     0.006339877 RMS     0.000935665
 Search for a local minimum.
 Step number   2 out of a maximum of  139
 All quantities printed in internal units (Hartrees-Bohrs-Radians)
 Mixed Optimization -- En-DIIS/RFO-DIIS
 Update second derivatives using D2CorX and points    1    2
 DE= -1.93D-03 DEPred=-1.99D-03 R= 9.71D-01
 TightC=F SS=  1.41D+00  RLast= 2.86D-01 DXNew= 5.0454D-01 8.5821D-01
 Trust test= 9.71D-01 RLast= 2.86D-01 DXMaxT set to 5.05D-01
 ITU=  1  0
 Use linear search instead of GDIIS.
     Eigenvalues ---    0.00250   0.00780   0.00965   0.01510   0.01731
     Eigenvalues ---    0.01997   0.02097   0.02110   0.02113   0.02170
     Eigenvalues ---    0.02187   0.02207   0.02217   0.04351   0.04520
     Eigenvalues ---    0.04841   0.05324   0.05840   0.07197   0.08185
     Eigenvalues ---    0.08531   0.08901   0.09216   0.09438   0.12629
     Eigenvalues ---    0.15500   0.15827   0.15998   0.16000   0.16000
     Eigenvalues ---    0.16000   0.16000   0.16799   0.18768   0.18975
     Eigenvalues ---    0.22000   0.22132   0.22590   0.24025   0.24632
     Eigenvalues ---    0.25140   0.25831   0.30875   0.31400   0.34065
     Eigenvalues ---    0.34384   0.34444   0.34738   0.35262   0.35289
     Eigenvalues ---    0.35333   0.35392   0.35760   0.38245   0.41019
     Eigenvalues ---    0.42336   0.42506   0.43786   0.44008   0.44897
     Eigenvalues ---    0.45779   0.46617   0.47126   0.47951   0.82935
     Eigenvalues ---    0.89814
 RFO step:  Lambda=-9.14771357D-04 EMin= 2.50387892D-03
 Quartic linear search produced a step of  0.04453.
 Iteration  1 RMS(Cart)=  0.09614898 RMS(Int)=  0.00305717
 Iteration  2 RMS(Cart)=  0.00480169 RMS(Int)=  0.00001700
 Iteration  3 RMS(Cart)=  0.00001022 RMS(Int)=  0.00001547
 Iteration  4 RMS(Cart)=  0.00000000 RMS(Int)=  0.00001547
 Variable       Old X    -DE/DX   Delta X   Delta X   Delta X     New X
                                 (Linear)    (Quad)   (Total)
    R1        2.74866  -0.00634  -0.00075  -0.00950  -0.01025   2.73842
    R2        2.75493  -0.00512  -0.00060  -0.00769  -0.00829   2.74664
    R3        3.12645   0.00094   0.00066   0.00426   0.00492   3.13137
    R4        3.42871   0.00205   0.00050   0.00973   0.01023   3.43894
    R5        1.92633  -0.00066  -0.00022  -0.00221  -0.00243   1.92390
    R6        1.92431  -0.00102  -0.00035  -0.00344  -0.00379   1.92052
    R7        2.74311  -0.00085   0.00009  -0.00200  -0.00191   2.74120
    R8        2.06514   0.00053  -0.00006   0.00138   0.00131   2.06645
    R9        2.07664  -0.00056   0.00016  -0.00120  -0.00104   2.07560
   R10        2.80998  -0.00139  -0.00032  -0.00551  -0.00582   2.80416
   R11        2.73951  -0.00044  -0.00029  -0.00242  -0.00271   2.73680
   R12        2.84706   0.00014   0.00020   0.00126   0.00146   2.84852
   R13        2.06359   0.00010   0.00012   0.00067   0.00079   2.06438
   R14        2.06927   0.00006   0.00011   0.00051   0.00062   2.06990
   R15        2.62094   0.00047  -0.00001   0.00131   0.00129   2.62224
   R16        2.62050  -0.00028  -0.00001  -0.00062  -0.00063   2.61987
   R17        2.60769  -0.00209  -0.00042  -0.00568  -0.00610   2.60159
   R18        2.61480   0.00052  -0.00000   0.00111   0.00110   2.61590
   R19        2.64406   0.00010  -0.00013  -0.00021  -0.00035   2.64371
   R20        2.05268   0.00003   0.00001   0.00012   0.00012   2.05280
   R21        2.63707   0.00034  -0.00013   0.00030   0.00017   2.63724
   R22        2.05058   0.00001  -0.00004  -0.00009  -0.00012   2.05046
   R23        2.64355  -0.00031  -0.00009  -0.00100  -0.00110   2.64245
   R24        2.05153   0.00005  -0.00003   0.00007   0.00004   2.05157
   R25        2.04943   0.00009  -0.00005   0.00012   0.00007   2.04950
    A1        2.14729  -0.00092   0.00300  -0.00220   0.00075   2.14804
    A2        1.86300  -0.00130   0.00019  -0.00933  -0.00921   1.85379
    A3        1.87774  -0.00000  -0.00092  -0.00125  -0.00217   1.87556
    A4        1.87172  -0.00114   0.00033  -0.00319  -0.00296   1.86875
    A5        1.81807   0.00160  -0.00109   0.01081   0.00970   1.82777
    A6        1.87107   0.00239  -0.00205   0.00728   0.00519   1.87626
    A7        1.94811  -0.00049  -0.00017  -0.00269  -0.00286   1.94525
    A8        1.96286  -0.00086   0.00046  -0.00315  -0.00270   1.96016
    A9        1.93577   0.00097   0.00057   0.00954   0.01011   1.94588
   A10        1.94550  -0.00051   0.00017  -0.00164  -0.00147   1.94403
   A11        1.79898   0.00055  -0.00081   0.00165   0.00083   1.79981
   A12        1.88137   0.00045   0.00080   0.00704   0.00783   1.88921
   A13        1.91748  -0.00036   0.00015  -0.00508  -0.00494   1.91254
   A14        1.98926   0.00001  -0.00037  -0.00172  -0.00210   1.98716
   A15        1.92155  -0.00007   0.00003   0.00028   0.00030   1.92185
   A16        1.96397   0.00056   0.00106   0.00785   0.00889   1.97286
   A17        1.84588  -0.00016   0.00019   0.00159   0.00174   1.84762
   A18        1.82953   0.00008  -0.00003   0.00078   0.00073   1.83026
   A19        1.79946   0.00006   0.00006   0.00024   0.00031   1.79978
   A20        1.91197  -0.00005  -0.00013  -0.00053  -0.00067   1.91131
   A21        1.89124   0.00014  -0.00016   0.00118   0.00101   1.89225
   A22        2.00823  -0.00004   0.00010   0.00017   0.00027   2.00850
   A23        1.94783  -0.00002   0.00024   0.00045   0.00068   1.94852
   A24        1.89998  -0.00006  -0.00012  -0.00135  -0.00147   1.89852
   A25        1.85393  -0.00068  -0.00031  -0.00337  -0.00368   1.85025
   A26        2.33663   0.00046   0.00022   0.00227   0.00249   2.33912
   A27        2.09141   0.00022   0.00008   0.00105   0.00113   2.09254
   A28        1.95170   0.00025   0.00014   0.00157   0.00171   1.95342
   A29        2.15087  -0.00040  -0.00024  -0.00231  -0.00255   2.14832
   A30        2.18044   0.00015   0.00010   0.00073   0.00083   2.18126
   A31        1.86514   0.00022   0.00009  -0.00015  -0.00004   1.86510
   A32        2.06732   0.00002   0.00006   0.00028   0.00035   2.06767
   A33        2.11106   0.00003   0.00009   0.00052   0.00061   2.11167
   A34        2.10480  -0.00005  -0.00016  -0.00080  -0.00096   2.10384
   A35        2.10505  -0.00002  -0.00009  -0.00046  -0.00055   2.10450
   A36        2.08918  -0.00001   0.00007   0.00020   0.00026   2.08944
   A37        2.08895   0.00003   0.00002   0.00027   0.00029   2.08924
   A38        2.11770   0.00001   0.00003   0.00010   0.00013   2.11783
   A39        2.08645   0.00004  -0.00007   0.00006  -0.00001   2.08644
   A40        2.07901  -0.00005   0.00004  -0.00016  -0.00012   2.07889
   A41        2.03399   0.00017   0.00015   0.00133   0.00148   2.03547
   A42        2.11963  -0.00010  -0.00010  -0.00080  -0.00090   2.11873
   A43        2.12957  -0.00008  -0.00005  -0.00053  -0.00058   2.12899
    D1       -0.87765  -0.00114   0.00205  -0.00631  -0.00423  -0.88188
    D2       -3.06633  -0.00138   0.00107  -0.01446  -0.01336  -3.07968
    D3        3.07415   0.00176  -0.00202   0.00542   0.00337   3.07752
    D4        0.88547   0.00152  -0.00299  -0.00273  -0.00575   0.87972
    D5        1.13039  -0.00063   0.00005  -0.00878  -0.00872   1.12166
    D6       -1.05829  -0.00087  -0.00092  -0.01693  -0.01785  -1.07614
    D7        1.04062   0.00014   0.00194   0.09660   0.09855   1.13917
    D8       -1.01512   0.00049   0.00215   0.10238   0.10455  -0.91057
    D9       -3.04711   0.00013   0.00216   0.09833   0.10051  -2.94660
   D10       -2.93788   0.00006   0.00433   0.10019   0.10449  -2.83338
   D11        1.28957   0.00041   0.00454   0.10598   0.11050   1.40006
   D12       -0.74242   0.00005   0.00455   0.10193   0.10645  -0.63597
   D13       -0.95755   0.00046   0.00327   0.10443   0.10771  -0.84983
   D14       -3.01329   0.00082   0.00348   0.11022   0.11372  -2.89957
   D15        1.23791   0.00045   0.00349   0.10617   0.10967   1.34758
   D16       -2.85909   0.00087   0.00207   0.07483   0.07690  -2.78219
   D17        1.43645   0.00059   0.00149   0.06912   0.07059   1.50704
   D18       -0.87620   0.00104   0.00127   0.07292   0.07420  -0.80200
[...]
 06301,0.00012222,-0.00004932,-0.00006440,0.00006095,0.00001031,-0.0001
 2190,0.00005345,-0.00003408,-0.00001005,-0.00007530,-0.00006625,0.0000
 3709,-0.00008757,-0.00007163,0.00049582,0.00046803,-0.00055812,0.00037
 707,0.00051724,0.00114656,0.00261046,0.00165997,-0.00002112,0.00214954
 ,0.00890002,-0.03272311,-0.11518832,0.11247772,-0.00847616,0.00138873,
 0.01081903,0.00276570,-0.01195580,0.02148355,0.01094390,0.01775016,-0.
 02263258,0.01334996,-0.07650568,0.04092620,0.00921768,0.22810898,-0.00
 076053,0.00042583,-0.00035034,0.00009291,-0.00008926,0.00013776,0.0002
 6434,0.00005125,-0.00000118,0.00046599,-0.00024677,-0.00008391,-0.0000
 6386,0.00018576,0.00013251,-0.00017288,0.00003435,0.00024262,0.0001898
 1,-0.00104208,0.00151315,-0.00082313,0.00447344,-0.00221336,0.00299160
 ,0.00098665,-0.00047047,0.01160654,-0.01010802,0.07644002,0.10854033,-
 0.29652438,0.00611206,0.01131711,-0.02836389,-0.00613121,0.02140842,-0
 .05367355,-0.02599666,-0.02549896,0.05871388,-0.03829426,0.04613015,-0
 .17533451,-0.06071037,-0.21681908,0.60514201,-0.00028461,0.00018117,0.
 00103277,0.00014667,-0.00022933,-0.00025046,0.00024844,0.00009990,-0.0
 0036573,-0.00004923,-0.00004699,-0.00040953,-0.00000345,0.00008273,0.0
 0021185,0.00006474,-0.00009951,0.00016051,-0.00066764,-0.00069130,0.00
 091582,0.00171762,-0.00406461,-0.00398731,-0.00134141,0.00146409,-0.00
 651053,-0.00840364,0.02489956,0.03147555,-0.04115181,0.07468518,-0.137
 70187,0.01663204,-0.03392680,0.01131619,0.01122569,-0.02711459,-0.0144
 4955,-0.01079806,0.01380210,-0.05523893,0.03942659,-0.12806319,-0.2828
 1275,0.05805625,-0.02391221,0.75100056,0.00697728,-0.00342704,0.002449
 11,-0.00045461,-0.00018586,0.00010036,-0.00160362,0.00020282,-0.000493
 20,0.00082273,0.00102085,0.00282937,-0.00020668,-0.00010809,0.00008150
 ,-0.00015858,0.00013254,-0.00032767,-0.16106785,0.06730086,-0.11168199
 ,-0.01806300,0.01328388,-0.01836750,-0.00018055,0.00210640,-0.00194622
 ,0.00019451,0.00011498,0.00053226,0.00014667,-0.00209528,-0.00225992,-
 0.00781386,0.00018419,0.00028094,-0.00001676,0.00015534,0.00004761,0.0
 0005705,-0.00003275,0.00026394,0.00009287,-0.00006201,-0.00027629,-0.0
 0014447,0.00042934,0.00037826,0.17717447,-0.00722827,0.00360971,-0.009
 72743,0.00030461,0.00008014,0.00083625,0.00070346,-0.00003455,0.000537
 18,-0.00076220,-0.00095520,-0.00388300,0.00014191,0.00024610,0.0001578
 0,0.00005982,-0.00022573,0.00007486,0.07203875,-0.09563260,0.07938500,
 -0.00568941,0.00280331,-0.00627035,-0.00073144,0.00096613,0.00050873,-
 0.00021916,-0.00036706,-0.00000940,-0.00027892,0.00031782,0.00057718,0
 .00045701,0.00065225,-0.00048534,-0.00003404,0.00009265,0.00000293,0.0
 0004970,-0.00009777,0.00002020,0.00002842,0.00002508,-0.00008660,-0.00
 006410,0.00007328,0.00003995,-0.07725928,0.09532833,-0.02006090,0.0127
 3737,-0.02021549,0.00140402,-0.00021056,0.00399429,0.00368432,-0.00078
 522,0.00070724,-0.00034630,-0.00277708,-0.00631187,0.00038197,0.000387
 05,0.00004488,0.00034676,-0.00038412,0.00062486,-0.12367569,0.07894403
 ,-0.16879130,0.00441003,-0.00321180,0.00534513,0.00232181,-0.00026320,
 -0.00005335,0.00018122,0.00026585,0.00017307,0.00013547,0.00032373,0.0
 0081890,0.00428613,-0.00177793,0.00009311,0.00007656,-0.00009284,-0.00
 007965,-0.00007967,0.00005515,-0.00011284,0.00002531,0.00000491,0.0001
 7137,-0.00007291,-0.00022577,-0.00019808,0.12355606,-0.08197821,0.1821
 9417,0.00118609,0.00730376,-0.00416955,-0.00045497,0.00226542,0.003035
 37,-0.00064829,-0.00100413,0.00044003,0.00015053,-0.00057011,0.0004521
 6,-0.00014876,-0.00006163,0.00017380,0.00007584,-0.00001077,-0.0000195
 2,-0.04962043,-0.01590860,-0.00077632,-0.01522108,-0.03449974,0.002902
 96,0.00003301,-0.00121818,-0.00271921,-0.00015603,0.00000061,0.0001452
 8,-0.00105988,0.00048210,0.00110593,0.00434339,-0.00125233,0.00042131,
 0.00000217,0.00016958,-0.00005314,-0.00002716,-0.00005727,-0.00003491,
 -0.00004882,0.00014987,-0.00001642,0.00003136,0.00019762,0.00016060,0.
 00369229,0.01884268,0.00167879,0.05769366,-0.00048037,-0.01211798,0.00
 222404,0.00046016,-0.00042345,-0.00230172,0.00001576,0.00272298,0.0007
 8741,-0.00015681,0.00086635,-0.00042737,0.00006682,-0.00005642,0.00018
 805,-0.00023241,-0.00007191,-0.00048565,-0.01849075,-0.31976413,0.0084
 9423,-0.00705885,-0.00925841,0.00074192,-0.00012323,-0.00053239,-0.000
 61765,0.00032859,0.00000903,0.00008396,-0.00026138,0.00093397,-0.00020
 405,0.00301192,0.00297989,0.00128134,-0.00012717,0.00030940,0.00018721
 ,0.00006915,-0.00015434,0.00014067,0.00004956,-0.00001852,-0.00024984,
 -0.00039255,0.00012146,0.00019852,-0.00102004,-0.00734504,-0.00128591,
 0.02485199,0.34176957,-0.00038329,-0.02738020,0.00312171,0.00312635,-0
 .00691373,-0.00514191,-0.00046219,0.00346299,0.00009586,-0.00058687,0.
 00258997,-0.00088434,0.00012384,-0.00000660,0.00008236,-0.00057247,-0.
 00018975,-0.00092834,-0.00100392,0.00675597,-0.04791121,0.00155493,0.0
 1221903,0.00136603,-0.00029341,0.00027078,0.00086962,0.00014795,0.0000
 7643,-0.00029997,0.00000175,0.00023143,0.00151093,-0.00120524,-0.00191
 890,-0.00096926,-0.00005031,-0.00011382,-0.00004634,-0.00001060,-0.000
 03566,-0.00010778,0.00010975,-0.00002199,0.00013175,-0.00010718,-0.000
 38309,-0.00027988,0.00329756,0.02047240,0.00229847,-0.00403210,-0.0090
 6989,0.04757893,0.00016061,0.00008902,0.00003499,-0.00001030,-0.000165
 42,0.00000895,-0.00000922,-0.00003530,-0.00005693,-0.00005476,-0.00001
 344,0.00010094,-0.00002833,-0.00000457,0.00000482,0.00001280,-0.000000
 38,0.00000142,0.00011035,-0.00030318,0.00269133,0.00667628,-0.00249013
 ,0.00426909,-0.24216271,0.05857870,-0.12141941,-0.00485392,0.00155455,
 -0.00283514,-0.00093446,0.00190480,0.00101581,0.00083316,-0.00273365,0
 .00342281,0.00098989,-0.00055822,-0.00066737,-0.00010130,0.00078487,-0
 .00035324,0.00000097,0.00005157,0.00072719,0.00048654,-0.00041619,-0.0
 0055986,0.00000615,-0.00031676,0.00171500,0.00028809,-0.00024458,0.000
 11039,0.25702615,-0.00024594,0.00047438,0.00042460,0.00004033,-0.00032
 764,0.00000502,0.00006092,-0.00005543,-0.00010934,-0.00011180,-0.00005
 245,-0.00022034,0.00001272,-0.00000636,0.00000060,0.00002862,-0.000022
 84,-0.00000444,0.00038225,0.00055690,0.00008377,-0.00019848,-0.0013611
 1,-0.00049309,0.05596309,-0.06349247,0.03562127,0.02273852,-0.00674716
 ,0.01654386,0.00178646,-0.00380349,-0.00067420,0.00174120,-0.00117567,
 0.00071851,-0.00118709,0.00173498,0.00069365,-0.00050386,-0.00081738,0
 .00038941,0.00005498,0.00008295,-0.00031850,-0.00065156,-0.00041951,0.
 00123821,-0.00045000,0.00047319,0.00036004,0.00013464,-0.00009300,0.00
 000550,-0.06199770,0.06792786,-0.00023712,-0.00028840,-0.00057316,0.00
 006953,-0.00006240,0.00021448,-0.00015391,-0.00006046,0.00024970,0.000
 41622,0.00001699,0.00022246,-0.00002691,0.00007323,0.00016035,-0.00004
 995,0.00001753,0.00006514,-0.00303213,0.00143211,0.00083440,-0.0246360
 0,0.01086062,-0.01690647,-0.10908766,0.03281596,-0.11909822,0.00876356
 ,0.00001970,0.00776424,0.00158761,-0.00449926,-0.00295530,-0.00090156,
 0.00200173,-0.00627899,-0.00049901,0.00039672,0.00051367,-0.00004022,0
 .00006132,0.00030429,0.00017476,-0.00024879,-0.00027460,-0.00071272,0.
 00040040,0.00071554,0.00144153,0.00008979,-0.00047717,0.00036749,0.000
 09243,-0.00009124,0.12336213,-0.04155856,0.13183918,0.00004951,0.00002
 250,0.00007704,-0.00001147,-0.00002465,-0.00002083,-0.00001881,-0.0000
 1324,-0.00001946,-0.00003219,0.00000599,-0.00002624,0.00000704,-0.0000
 0091,-0.00000560,0.00000440,0.00000300,-0.00000430,0.00005476,0.000034
 65,-0.00005056,-0.00021150,0.00030276,-0.00017334,-0.00291261,-0.00187
 792,0.00032787,0.00519775,-0.00228140,0.00582338,0.00656916,0.00386098
 ,0.00057407,0.00011790,-0.00044622,0.00048644,-0.05704164,0.03196179,-
 0.06038753,0.00124143,0.00404412,-0.01210594,0.00502257,0.00479073,0.0
 0019467,-0.00070871,-0.00024104,0.00029688,-0.00000801,0.00001210,0.00
 001648,0.00002013,-0.00002499,0.00001203,-0.00039394,0.00052608,-0.000
 09821,0.04710797,0.00000842,0.00001099,-0.00006989,-0.00001083,-0.0000
 0646,0.00002047,-0.00003626,-0.00002219,0.00003434,0.00002328,-0.00001
 384,0.00000655,-0.00000375,0.00001044,-0.00000464,-0.00000348,-0.00000
 208,0.00000781,0.00009253,0.00002938,0.00002819,-0.00028182,0.00043092
 ,0.00010867,-0.00185932,0.00019550,0.00084704,-0.00430820,0.01113624,-
 0.01549400,0.00337073,-0.00010159,-0.00294834,-0.00010388,-0.00007430,
 -0.00130004,0.03252709,-0.09676162,0.09466226,0.00551741,-0.00424822,0
 .02674910,0.00470192,-0.00379495,-0.00062957,-0.00000556,-0.00097422,-
 0.00080581,0.00002471,0.00000801,-0.00000234,-0.00000379,-0.00002215,0
 .00002072,0.00013841,0.00021366,0.00020559,-0.03774141,0.09461742,-0.0
 0017405,0.00006877,0.00000236,0.00004367,-0.00006235,0.00000392,0.0000
 6240,0.00000932,-0.00001472,0.00008465,-0.00004916,-0.00004424,-0.0000
 0389,0.00004071,0.00003718,-0.00001729,-0.00000358,0.00004696,-0.00004
 841,-0.00002422,0.00010671,-0.00025011,0.00022278,-0.00005027,0.000062
 06,0.00095448,0.00103173,-0.00648299,0.01093505,-0.01835874,0.00073327
 ,-0.00350477,-0.00121389,0.00006408,0.00004685,-0.00164130,-0.06053294
 ,0.09610388,-0.29214852,0.00026468,-0.00080332,0.00232151,-0.00030576,
 -0.00014678,0.00178714,0.00039577,-0.00070313,0.00003929,0.00004604,-0
 .00002481,-0.00002559,-0.00002946,0.00000722,-0.00001989,0.00030103,-0
 .00066207,-0.00031495,0.06544361,-0.10252340,0.30811211,0.00005760,0.0
 0002124,-0.00006213,-0.00002142,0.00001475,0.00001826,-0.00005450,-0.0
 0003818,0.00003619,-0.00001059,0.00000175,0.00003031,-0.00000039,-0.00
 000401,-0.00001243,0.00000243,0.00001021,-0.00000655,0.00006070,0.0000
 5363,-0.00009922,-0.00041217,-0.00009577,0.00019471,0.00068347,-0.0000
 1718,0.00031689,0.00447870,0.00469021,-0.00106182,-0.00073936,0.000419
 74,-0.00022139,-0.00007499,-0.00052527,0.00010849,0.00066845,0.0064638
 1,0.01106489,-0.04825532,0.03596933,0.03985316,0.00415993,-0.00469365,
 -0.00683215,0.00516486,0.00287597,-0.00174741,-0.00002723,-0.00000780,
 -0.00000266,-0.00001088,-0.00000033,0.00001004,-0.00003706,-0.00003865
 ,-0.00004004,-0.00320587,-0.00190740,0.00016842,0.04065820,-0.00006373
 ,0.00006395,0.00017238,0.00002876,-0.00005307,-0.00004294,0.00006774,0
 .00002063,-0.00007725,-0.00001442,-0.00001111,-0.00007804,0.00001116,0
 .00001435,0.00003317,0.00000518,-0.00000831,0.00001815,-0.00015833,-0.
 00003631,-0.00005490,0.00009799,-0.00064725,-0.00030551,0.00016124,0.0
 0044453,-0.00095040,0.00445779,-0.00373567,0.00124312,0.00020683,-0.00
 092471,0.00094904,-0.00011927,0.00026154,0.00002200,0.00391715,-0.0106
 1225,-0.02448412,0.03614751,-0.14135390,-0.13066558,-0.00240792,0.0102
 2133,0.01139706,0.00276072,0.00078845,0.00251528,-0.00002094,-0.000003
 08,0.00000184,0.00001593,0.00000513,-0.00000792,0.00002146,-0.00000791
 ,-0.00001997,-0.00185019,0.00020520,0.00035718,-0.04140644,0.14515576,
 -0.00009167,0.00003951,0.00005308,0.00002564,-0.00003802,-0.00001342,0
 .00004490,0.00000961,-0.00002584,0.00002613,-0.00001832,-0.00002801,-0
 .00000062,0.00001468,0.00001512,-0.00001345,0.00000757,0.00002188,-0.0
 0001447,-0.00000919,0.00003341,-0.00000352,0.00002380,0.00001882,-0.00
 010124,0.00014484,0.00031573,-0.00082146,0.00102136,0.00135774,-0.0005
 3032,0.00119402,-0.00015592,0.00010406,-0.00006311,0.00016316,-0.00121
 891,0.00350158,0.00649541,0.03967106,-0.13061204,-0.25541460,0.0058233
 5,-0.01691781,-0.01788213,-0.00211802,0.00289785,-0.00339730,0.0000069
 3,-0.00000311,-0.00000403,-0.00000798,0.00000302,-0.00001046,0.0000035
 6,-0.00002514,-0.00000531,0.00048030,-0.00025805,0.00054864,-0.0418765
 0,0.13965510,0.26800103,0.00008520,0.00002120,-0.00007106,-0.00001943,
 0.00000772,0.00001763,-0.00004942,-0.00003952,0.00003277,-0.00002302,0
 .00000237,0.00003040,0.00000326,-0.00000766,-0.00001280,0.00000973,0.0
 0000990,-0.00001474,0.00000229,-0.00002000,-0.00002207,-0.00008417,-0.
 00025098,-0.00001260,-0.00032018,-0.00029907,0.00004095,-0.00058532,-0
 .00040478,-0.00002828,0.00621579,0.00212501,0.00045970,0.00010532,0.00
 040608,0.00001483,0.00561616,0.00217591,-0.00193707,0.00094689,0.00661
 678,0.00043220,-0.09012365,0.11549291,-0.00937433,0.00174221,0.0044803
 5,-0.00079611,-0.00000895,-0.00000460,0.00001484,-0.00000388,0.0000147
 9,0.00004352,-0.00002409,0.00006843,-0.00004650,-0.00013439,0.00033557
 ,0.00004839,-0.00337261,-0.00183834,0.00028312,0.08338786,-0.00010501,
 0.00005132,0.00018245,0.00003681,-0.00005804,-0.00004789,0.00006863,0.
 00002527,-0.00007270,0.00000669,-0.00002496,-0.00009361,0.00000611,0.0
 0002647,0.00004234,-0.00000534,-0.00000896,0.00004256,-0.00011459,-0.0
 0005748,0.00004849,-0.00004866,-0.00024096,-0.00021118,-0.00005348,-0.
 00004218,-0.00004720,-0.00059598,0.00043890,-0.00006502,0.00229831,0.0
 0142409,-0.00294588,0.00058450,-0.00058140,0.00029543,0.00236062,0.001
 69042,0.00194659,0.00412422,-0.00582043,-0.00157519,0.11558934,-0.2967
 7523,0.01686946,0.00630177,-0.01009196,0.00287423,0.00001905,-0.000006
 62,-0.00000604,-0.00000384,0.00001133,0.00000061,-0.00001906,0.0000214
 7,0.00000880,0.00017568,-0.00037637,-0.00012047,-0.00177218,-0.0001223
 6,0.00031007,-0.12701366,0.31065691,-0.00006035,0.00000358,0.00012741,
 0.00002198,-0.00002429,-0.00003218,0.00004130,0.00002594,-0.00004732,0
 .00000466,-0.00001098,-0.00006142,0.00000280,0.00001555,0.00002811,-0.
 00000182,-0.00001436,0.00003031,-0.00008882,-0.00003294,0.00005009,0.0
 0005683,-0.00029980,-0.00013455,0.00008576,0.00003862,-0.00000955,0.00
 016453,-0.00034997,-0.00149131,0.00022780,-0.00275127,-0.00427307,0.00
 084916,-0.00114455,0.00066619,-0.00170892,0.00169015,-0.00493504,-0.01
 177881,0.02649222,0.00336026,-0.00932692,0.01692539,-0.06082717,0.0109
 2794,-0.02478620,0.00566399,0.00002616,-0.00000641,-0.00001737,0.00000
 535,0.00000298,-0.00002595,0.00002364,-0.00004494,0.00000462,-0.000595
 98,0.00137040,-0.00000379,0.00051145,-0.00022947,0.00082244,0.01054930
 ,-0.01753106,0.06013393,-0.00002988,0.00023037,-0.00006592,0.00000973,
 -0.00012610,0.00002228,-0.00000710,-0.00011713,0.00003413,-0.00000747,
 -0.00004444,0.00001883,0.00003186,0.00001128,-0.00000040,-0.00001192,0
 .00011334,0.00006143,0.00013630,0.00028228,-0.00002700,-0.00036958,-0.
 00026080,0.00055573,-0.00020290,-0.00015224,-0.00095516,0.00450291,0.0
 0463007,0.00006308,0.00209330,0.00359512,-0.01289529,-0.00268963,-0.00
 222098,0.00026791,-0.00074169,0.00024916,0.00054159,0.00595234,0.00295
 636,0.00087816,0.00451802,-0.00305796,0.00543930,-0.05550665,0.0343820
 7,-0.06241930,-0.00001342,-0.00002102,-0.00001338,-0.00003970,-0.00003
 545,-0.00007537,-0.00006366,0.00018564,0.00012542,-0.00095257,-0.00046
 850,0.00001508,0.00031866,-0.00003513,0.00030376,-0.00338393,-0.001835
 03,0.00007144,0.04644404,0.00029364,-0.00004460,0.00020954,-0.00005037
 ,0.00003510,-0.00006195,-0.00006823,-0.00001629,-0.00003788,-0.0001929
 0,0.00004759,-0.00007130,0.00003359,-0.00004056,0.00000881,0.00010514,
 -0.00004145,-0.00006333,-0.00005919,0.00007856,-0.00011961,0.00023161,
 -0.00040941,0.00014584,0.00018664,-0.00029404,0.00139259,0.00417679,-0
 .00316070,-0.00096899,0.00629060,-0.00505474,0.02687361,-0.00264842,0.
 00197677,0.00014058,0.00013907,-0.00112319,-0.00081843,0.00309145,-0.0
 0028692,-0.00337927,-0.00491438,0.01126595,-0.01544389,0.03389409,-0.0
 9503518,0.09661832,-0.00004865,0.00001460,-0.00000430,0.00002327,0.000
 00406,0.00002704,0.00006737,-0.00030456,-0.00015707,-0.00048609,-0.000
 08911,0.00013272,-0.00014823,0.00042671,-0.00085308,-0.00179461,-0.000
 10234,0.00067108,-0.03823267,0.09232800,0.00006904,0.00001509,-0.00003
 303,-0.00001749,0.00000924,0.00001006,-0.00003606,-0.00002595,0.000022
 64,-0.00002285,0.00000348,0.00001463,-0.00000864,-0.00000828,-0.000012
 84,0.00002022,-0.00000450,0.00000947,0.00005888,0.00003913,-0.00000656
 ,-0.00010552,0.00039297,-0.00013958,0.00008403,-0.00023825,0.00007884,
 -0.00026417,-0.00047781,0.00124320,0.00002133,-0.00039148,0.00162088,-
 0.00004747,0.00050689,0.00033995,0.00029574,-0.00044331,0.00029798,0.0
 0102720,-0.00397945,-0.00188066,-0.00657794,0.01137918,-0.01655166,-0.
 06250019,0.09660562,-0.29675915,-0.00000315,-0.00001497,0.00000669,-0.
 00002569,0.00001270,-0.00000143,0.00001585,-0.00003841,0.00003270,0.00
 004249,0.00011975,-0.00003187,-0.00033625,0.00059065,-0.00088258,0.000
 36527,0.00008536,0.00095372,0.06798022,-0.10418503,0.31165030,0.000153
 90,-0.00094572,-0.00081211,-0.00003945,0.00044812,0.00009303,-0.000307
 90,0.00002811,0.00040648,0.00010492,0.00011888,0.00036761,-0.00003337,
 -0.00007168,-0.00004434,-0.00001409,0.00002714,-0.00006351,0.00088476,
 -0.00021054,0.00204202,-0.00545894,-0.00156763,0.00474110,-0.18681321,
 -0.12887249,0.02152470,0.01179275,0.00915060,-0.00259699,-0.00041597,0
 .00178810,0.00087056,0.00003306,-0.00212475,0.00053222,0.00010272,0.00
 001764,0.00005222,-0.00051746,-0.00032590,-0.00023559,-0.00016452,0.00
 040587,0.00012208,-0.00029808,-0.00057688,-0.00013126,0.00060357,-0.00
 002146,0.00001674,-0.00007668,-0.00021981,0.00024482,-0.01791722,-0.01
 833883,0.00325369,0.00023910,-0.00000586,0.00011176,-0.00003061,0.0000
 1524,0.00002534,0.00001833,-0.00000492,-0.00000848,0.00001295,0.000110
 48,-0.00003485,0.19814145,0.00005550,0.00018818,0.00008793,-0.00002573
 ,-0.00007997,-0.00001153,0.00008147,-0.00000638,-0.00010678,-0.0000606
 1,0.00000434,-0.00002016,-0.00003038,-0.00000654,-0.00001799,0.0000111
 2,-0.00001136,-0.00001413,0.00098834,0.00090393,-0.00115191,0.00113469
 ,0.00387321,0.00201562,-0.13499969,-0.17696552,0.02688926,-0.01637378,
 -0.02522170,0.00114759,0.00072784,-0.00270209,-0.00302352,-0.00003207,
 0.00114648,0.00111479,-0.00016336,0.00093663,0.00195158,0.00179064,-0.
 00084921,0.00059641,-0.00003514,-0.00036842,-0.00105124,0.00048905,0.0
 0090696,0.00025509,-0.00026502,-0.00002295,-0.00007465,0.00015293,0.00
 012458,-0.00009133,0.00610783,0.00720157,-0.00159799,-0.00075232,-0.00
 037066,-0.00025090,0.00013446,-0.00009165,-0.00002511,-0.00008377,-0.0
 0003689,-0.00000965,-0.00002825,-0.00017427,0.00004740,0.14117627,0.19
 162173,0.00054636,0.00140981,0.00161740,-0.00001997,-0.00055053,-0.000
 17730,0.00040139,-0.00009739,-0.00084386,-0.00033144,-0.00008570,-0.00
 024797,0.00006205,0.00005851,-0.00000435,0.00003730,-0.00001522,0.0000
 4770,0.00079594,0.00258671,-0.00477222,0.03163449,0.01738119,-0.014671
 11,0.01557370,0.02098471,-0.05025772,-0.00595580,-0.00458637,0.0041609
 7,-0.00032342,-0.00005431,-0.00212073,-0.00237808,0.00207242,0.0012286
 2,0.00086703,-0.00053239,-0.00002958,0.00011130,0.00078209,-0.00012758
 ,0.00002262,-0.00029340,0.00063851,0.00058263,-0.00021983,-0.00017100,
 0.00001833,-0.00021265,-0.00018544,0.00099523,0.00019637,-0.00033767,-
 0.01191697,-0.01193539,0.00405465,-0.00028726,-0.00014481,-0.00016980,
 -0.00001427,-0.00003886,-0.00002684,-0.00001735,0.00000985,0.00001766,
 0.00007343,-0.00005599,0.00001830,-0.03047727,-0.02665879,0.06235936\\
 -0.00001216,0.00003149,-0.00002170,0.00000264,-0.00002019,-0.00000190,
 0.00000037,0.00000471,-0.00001217,0.00001326,-0.00000588,0.00002200,-0
 .00000285,0.00000501,-0.00000095,0.00000665,0.00000230,-0.00000599,-0.
 00002557,0.00000365,0.00001977,0.00002596,-0.00001227,0.00000130,-0.00
 000616,-0.00000311,-0.00000781,0.00000135,0.00000982,0.00000051,0.0000
 0503,-0.00001542,-0.00001362,-0.00001009,0.00001844,0.00000829,-0.0000
 0279,-0.00000584,0.00000117,0.00000022,-0.00000052,0.00000341,-0.00000
 006,-0.00000254,0.00000076,-0.00000435,0.00000417,0.00000782,-0.000000
 85,-0.00000796,-0.00000863,0.00000172,0.00000191,0.00000149,0.00000251
 ,0.00000131,-0.00000147,0.00000165,-0.00000358,0.00000012,0.00000039,-
 0.00000338,0.00000278,-0.00000060,-0.00000123,0.00000322,0.00000025,0.
 00000070,0.00000192,0.00000349,-0.00000160,-0.00000031\\\@
 The archive entry for this job was punched.


 BLACK HOLES SUCK.
 Job cpu time:       0 days  1 hours 29 minutes 39.3 seconds.
 Elapsed time:       0 days  0 hours  5 minutes 41.9 seconds.
 File lengths (MBytes):  RWF=    234 Int=      0 D2E=      0 Chk=      8 Scr=      1
 Normal termination of Gaussian 16 at Sat Jul  2 11:42:06 2022.
