 Entering Gaussian System, Link 0=g16
 AtFile(1): /home/561/yj5695/Basis/6-31pGd.gbs
 Initial command:
 /apps/gaussian/g16c01/g16/l1.exe "/jobfs/50065394.gadi-pbs/Gau-200506.inp" -scrdir="/jobfs/50065394.gadi-pbs/"
 Entering Link 1 = /apps/gaussian/g16c01/g16/l1.exe PID=    200507.
  
 Copyright (c) 1988-2019, Gaussian, Inc.  All Rights Reserved.
  
 This is part of the Gaussian(R) 16 program.  It is based on
 the Gaussian(R) 09 system (copyright 2009, Gaussian, Inc.),
 the Gaussian(R) 03 system (copyright 2003, Gaussian, Inc.),
 the Gaussian(R) 98 system (copyright 1998, Gaussian, Inc.),
 the Gaussian(R) 94 system (copyright 1995, Gaussian, Inc.),
 the Gaussian 92(TM) system (copyright 1992, Gaussian, Inc.),
 the Gaussian 90(TM) system (copyright 1990, Gaussian, Inc.),
 the Gaussian 88(TM) system (copyright 1988, Gaussian, Inc.),
 the Gaussian 86(TM) system (copyright 1986, Carnegie Mellon
 University), and the Gaussian 82(TM) system (copyright 1983,
 Carnegie Mellon University). Gaussian is a federally registered
 trademark of Gaussian, Inc.
  
 This software contains proprietary and confidential information,
 including trade secrets, belonging to Gaussian, Inc.
  
 This software is provided under written license and may be
 used, copied, transmitted, or stored only in accord with that
 written license.
  
 The following legend is applicable only to US Government
 contracts under FAR:
  
                    RESTRICTED RIGHTS LEGEND
  
 Use, reproduction and disclosure by the US Government is
 subject to restrictions as set forth in subparagraphs (a)
 and (c) of the Commercial Computer Software - Restricted
 Rights clause in FAR 52.227-19.
  
 Gaussian, Inc.
 340 Quinnipiac St., Bldg. 40, Wallingford CT 06492
  
  
 ---------------------------------------------------------------
 Warning -- This program may not be used in any manner that
 competes with the business of Gaussian, Inc. or will provide
 assistance to any competitor of Gaussian, Inc.  The licensee
 of this program is prohibited from giving any competitor of
 Gaussian, Inc. access to this program.  By using this program,
 the user acknowledges that Gaussian, Inc. is engaged in the
 business of creating and licensing software in the field of
 computational chemistry and represents and warrants to the
 licensee that it is not a competitor of Gaussian, Inc. and that
 it will not use this program in any manner prohibited above.
 ---------------------------------------------------------------
  

 Cite this work as:
 Gaussian 16, Revision C.01,
 M. J. Frisch, G. W. Trucks, H. B. Schlegel, G. E. Scuseria, 
 M. A. Robb, J. R. Cheeseman, G. Scalmani, V. Barone, 
 G. A. Petersson, H. Nakatsuji, X. Li, M. Caricato, A. V. Marenich, 
 J. Bloino, B. G. Janesko, R. Gomperts, B. Mennucci, H. P. Hratchian, 
 J. V. Ortiz, A. F. Izmaylov, J. L. Sonnenberg, D. Williams-Young, 
 F. Ding, F. Lipparini, F. Egidi, J. Goings, B. Peng, A. Petrone, 
 T. Henderson, D. Ranasinghe, V. G. Zakrzewski, J. Gao, N. Rega, 
 G. Zheng, W. Liang, M. Hada, M. Ehara, K. Toyota, R. Fukuda, 
 J. Hasegawa, M. Ishida, T. Nakajima, Y. Honda, O. Kitao, H. Nakai, 
 T. Vreven, K. Throssell, J. A. Montgomery, Jr., J. E. Peralta, 
 F. Ogliaro, M. J. Bearpark, J. J. Heyd, E. N. Brothers, K. N. Kudin, 
 V. N. Staroverov, T. A. Keith, R. Kobayashi, J. Normand, 
 K. Raghavachari, A. P. Rendell, J. C. Burant, S. S. Iyengar, 
 J. Tomasi, M. Cossi, J. M. Millam, M. Klene, C. Adamo, R. Cammi, 
 J. W. Ochterski, R. L. Martin, K. Morokuma, O. Farkas, 
 J. B. Foresman, and D. J. Fox, Gaussian, Inc., Wallingford CT, 2019.
 
 ******************************************
 Gaussian 16:  ES64L-G16RevC.01  3-Jul-2019
                 2-Jul-2022 
 ******************************************
 %nproc=16
 Will use up to   16 processors via shared memory.
 %mem=50gb
 --------------------------------------------------
 #M062X/gen 6D INT(grid=ultrafine) OPT Freq=noraman
 --------------------------------------------------
 1/18=20,19=15,26=4,38=1/1,3;
 2/9=110,12=2,17=6,18=5,40=1/2;
 3/5=7,8=2,11=2,25=1,30=1,71=1,74=-55,75=-5/1,2,3;
 4//1;
 5/5=2,38=5/2;
 6/7=2,8=2,9=2,10=2,28=1/1;
 7//1,2,3,16;
 1/18=20,19=15,26=4/3(2);
 2/9=110/2;
 99//99;
 2/9=110/2;
 3/5=7,6=1,8=2,11=2,25=1,30=1,71=1,74=-55,75=-5,82=7/1,2,3;
 4/5=5,16=3,69=1/1;
 5/5=2,38=5/2;
 7//1,2,3,16;
 1/18=20,19=15,26=4/3(-5);
 2/9=110/2;
 6/7=2,8=2,9=2,10=2,19=2,28=1/1;
 99/9=1/99;
 ----------
 HA.40.freq
 ----------
 Symbolic Z-matrix:
 Charge =  0 Multiplicity = 1
 C                    -1.58916   1.21912  -1.23923 
 C                    -2.70782   1.31757  -2.11073 
 C                    -2.76041   0.62561  -3.29455 
 C                    -1.68445  -0.20353  -3.67473 
 C                    -0.5786   -0.29149  -2.86404 
 C                    -0.46802   0.42199  -1.62753 
 S                     0.75528  -1.31682  -3.46026 
 O                     1.22894  -2.17339  -2.3712 
 O                     0.30756  -1.94784  -4.70186 
 N                     2.03189  -0.35743  -3.88507 
 H                     2.44036   0.13664  -3.0898 
 H                     1.77672   0.30091  -4.62423 
 C                     0.68975   0.40572  -0.80124 
 C                     0.72265   1.16309   0.34188 
 C                    -0.39016   1.92914   0.75246 
 C                    -1.55028   1.94653   0.0046 
 N                    -2.69803   2.68106   0.39366 
 C                    -3.81274   1.81653   0.80899 
 C                    -2.46733   3.69008   1.42198 
 H                    -3.52916   1.97119  -1.83909 
 H                    -3.62009   0.71854  -3.94979 
 H                    -1.72481  -0.75614  -4.60691 
 H                     1.5485   -0.20393  -1.05464 
 H                     1.61396   1.15763   0.96242 
 H                    -0.32389   2.4863    1.6799 
 H                    -3.98941   1.02024   0.08561 
 H                    -4.72117   2.41886   0.89365 
 H                    -3.60373   1.35501   1.78705 
 H                    -1.64987   4.3521    1.12666 
 H                    -2.23508   3.24984   2.40444 
 H                    -3.37795   4.28534   1.5265 
 

 GradGradGradGradGradGradGradGradGradGradGradGradGradGradGradGradGradGrad
 Berny optimization.
 Initialization pass.
                           ----------------------------
                           !    Initial Parameters    !
                           ! (Angstroms and Degrees)  !
 --------------------------                            --------------------------
 ! Name  Definition              Value          Derivative Info.                !
 --------------------------------------------------------------------------------
 ! R1    R(1,2)                  1.4215         estimate D2E/DX2                !
 ! R2    R(1,6)                  1.4294         estimate D2E/DX2                !
 ! R3    R(1,16)                 1.4414         estimate D2E/DX2                !
 ! R4    R(2,3)                  1.3722         estimate D2E/DX2                !
 ! R5    R(2,20)                 1.0843         estimate D2E/DX2                !
 ! R6    R(3,4)                  1.4106         estimate D2E/DX2                !
 ! R7    R(3,21)                 1.0849         estimate D2E/DX2                !
 ! R8    R(4,5)                  1.374          estimate D2E/DX2                !
 ! R9    R(4,22)                 1.0844         estimate D2E/DX2                !
 ! R10   R(5,6)                  1.4319         estimate D2E/DX2                !
 ! R11   R(5,7)                  1.7849         estimate D2E/DX2                !
 ! R12   R(6,13)                 1.4225         estimate D2E/DX2                !
 ! R13   R(7,8)                  1.4643         estimate D2E/DX2                !
 ! R14   R(7,9)                  1.4629         estimate D2E/DX2                !
 ! R15   R(7,10)                 1.6525         estimate D2E/DX2                !
 ! R16   R(10,11)                1.0215         estimate D2E/DX2                !
 ! R17   R(10,12)                1.0222         estimate D2E/DX2                !
 ! R18   R(13,14)                1.3716         estimate D2E/DX2                !
 ! R19   R(13,23)                1.0832         estimate D2E/DX2                !
 ! R20   R(14,15)                1.412          estimate D2E/DX2                !
 ! R21   R(14,24)                1.0861         estimate D2E/DX2                !
 ! R22   R(15,16)                1.3804         estimate D2E/DX2                !
 ! R23   R(15,25)                1.084          estimate D2E/DX2                !
 ! R24   R(16,17)                1.4171         estimate D2E/DX2                !
 ! R25   R(17,18)                1.4705         estimate D2E/DX2                !
 ! R26   R(17,19)                1.459          estimate D2E/DX2                !
 ! R27   R(18,26)                1.0902         estimate D2E/DX2                !
 ! R28   R(18,27)                1.0933         estimate D2E/DX2                !
 ! R29   R(18,28)                1.1015         estimate D2E/DX2                !
 ! R30   R(19,29)                1.0926         estimate D2E/DX2                !
 ! R31   R(19,30)                1.1013         estimate D2E/DX2                !
 ! R32   R(19,31)                1.0929         estimate D2E/DX2                !
 ! A1    A(2,1,6)              119.2964         estimate D2E/DX2                !
 ! A2    A(2,1,16)             121.0186         estimate D2E/DX2                !
 ! A3    A(6,1,16)             119.6493         estimate D2E/DX2                !
 ! A4    A(1,2,3)              121.6112         estimate D2E/DX2                !
 ! A5    A(1,2,20)             118.9659         estimate D2E/DX2                !
 ! A6    A(3,2,20)             119.4122         estimate D2E/DX2                !
 ! A7    A(2,3,4)              119.9795         estimate D2E/DX2                !
 ! A8    A(2,3,21)             120.5442         estimate D2E/DX2                !
 ! A9    A(4,3,21)             119.4727         estimate D2E/DX2                !
 ! A10   A(3,4,5)              119.5073         estimate D2E/DX2                !
 ! A11   A(3,4,22)             120.1873         estimate D2E/DX2                !
 ! A12   A(5,4,22)             120.2998         estimate D2E/DX2                !
 ! A13   A(4,5,6)              122.6682         estimate D2E/DX2                !
 ! A14   A(4,5,7)              116.1772         estimate D2E/DX2                !
 ! A15   A(6,5,7)              121.13           estimate D2E/DX2                !
 ! A16   A(1,6,5)              116.8662         estimate D2E/DX2                !
 ! A17   A(1,6,13)             119.1415         estimate D2E/DX2                !
 ! A18   A(5,6,13)             123.9713         estimate D2E/DX2                !
 ! A19   A(5,7,8)              109.2276         estimate D2E/DX2                !
 ! A20   A(5,7,9)              107.6116         estimate D2E/DX2                !
 ! A21   A(5,7,10)             109.2501         estimate D2E/DX2                !
 ! A22   A(8,7,9)              118.5478         estimate D2E/DX2                !
 ! A23   A(8,7,10)             106.3158         estimate D2E/DX2                !
 ! A24   A(9,7,10)             105.5858         estimate D2E/DX2                !
 ! A25   A(7,10,11)            112.9295         estimate D2E/DX2                !
 ! A26   A(7,10,12)            111.5286         estimate D2E/DX2                !
 ! A27   A(11,10,12)           110.5665         estimate D2E/DX2                !
 ! A28   A(6,13,14)            119.822          estimate D2E/DX2                !
 ! A29   A(6,13,23)            121.0511         estimate D2E/DX2                !
 ! A30   A(14,13,23)           119.1248         estimate D2E/DX2                !
 ! A31   A(13,14,15)           121.5329         estimate D2E/DX2                !
 ! A32   A(13,14,24)           119.5434         estimate D2E/DX2                !
 ! A33   A(15,14,24)           118.9059         estimate D2E/DX2                !
 ! A34   A(14,15,16)           120.7738         estimate D2E/DX2                !
 ! A35   A(14,15,25)           118.6503         estimate D2E/DX2                !
 ! A36   A(16,15,25)           120.561          estimate D2E/DX2                !
 ! A37   A(1,16,15)            118.9343         estimate D2E/DX2                !
 ! A38   A(1,16,17)            118.4657         estimate D2E/DX2                !
 ! A39   A(15,16,17)           122.5794         estimate D2E/DX2                !
 ! A40   A(16,17,18)           112.7526         estimate D2E/DX2                !
 ! A41   A(16,17,19)           115.0802         estimate D2E/DX2                !
 ! A42   A(18,17,19)           109.1095         estimate D2E/DX2                !
 ! A43   A(17,18,26)           111.3983         estimate D2E/DX2                !
 ! A44   A(17,18,27)           109.1376         estimate D2E/DX2                !
 ! A45   A(17,18,28)           110.6878         estimate D2E/DX2                !
 ! A46   A(26,18,27)           108.6106         estimate D2E/DX2                !
 ! A47   A(26,18,28)           108.2935         estimate D2E/DX2                !
 ! A48   A(27,18,28)           108.6479         estimate D2E/DX2                !
 ! A49   A(17,19,29)           110.2937         estimate D2E/DX2                !
 ! A50   A(17,19,30)           112.6819         estimate D2E/DX2                !
 ! A51   A(17,19,31)           108.1988         estimate D2E/DX2                !
 ! A52   A(29,19,30)           108.9991         estimate D2E/DX2                !
 ! A53   A(29,19,31)           108.6161         estimate D2E/DX2                !
 ! A54   A(30,19,31)           107.9449         estimate D2E/DX2                !
 ! D1    D(6,1,2,3)              2.4979         estimate D2E/DX2                !
 ! D2    D(6,1,2,20)          -176.306          estimate D2E/DX2                !
 ! D3    D(16,1,2,3)          -179.6841         estimate D2E/DX2                !
 ! D4    D(16,1,2,20)            1.512          estimate D2E/DX2                !
 ! D5    D(2,1,6,5)             -3.0884         estimate D2E/DX2                !
 ! D6    D(2,1,6,13)           175.3098         estimate D2E/DX2                !
 ! D7    D(16,1,6,5)           179.0632         estimate D2E/DX2                !
 ! D8    D(16,1,6,13)           -2.5385         estimate D2E/DX2                !
 ! D9    D(2,1,16,15)         -173.4363         estimate D2E/DX2                !
 ! D10   D(2,1,16,17)            4.9587         estimate D2E/DX2                !
 ! D11   D(6,1,16,15)            4.3741         estimate D2E/DX2                !
 ! D12   D(6,1,16,17)         -177.2309         estimate D2E/DX2                !
 ! D13   D(1,2,3,4)             -0.2963         estimate D2E/DX2                !
 ! D14   D(1,2,3,21)          -179.6022         estimate D2E/DX2                !
 ! D15   D(20,2,3,4)           178.5024         estimate D2E/DX2                !
 ! D16   D(20,2,3,21)           -0.8035         estimate D2E/DX2                !
 ! D17   D(2,3,4,5)             -1.1947         estimate D2E/DX2                !
 ! D18   D(2,3,4,22)           179.6632         estimate D2E/DX2                !
 ! D19   D(21,3,4,5)           178.1186         estimate D2E/DX2                !
 ! D20   D(21,3,4,22)           -1.0235         estimate D2E/DX2                !
 ! D21   D(3,4,5,6)              0.4623         estimate D2E/DX2                !
 ! D22   D(3,4,5,7)           -177.7507         estimate D2E/DX2                !
 ! D23   D(22,4,5,6)           179.6034         estimate D2E/DX2                !
 ! D24   D(22,4,5,7)             1.3904         estimate D2E/DX2                !
 ! D25   D(4,5,6,1)              1.683          estimate D2E/DX2                !
 ! D26   D(4,5,6,13)          -176.63           estimate D2E/DX2                !
 ! D27   D(7,5,6,1)            179.8095         estimate D2E/DX2                !
 ! D28   D(7,5,6,13)             1.4964         estimate D2E/DX2                !
 ! D29   D(4,5,7,8)           -134.2554         estimate D2E/DX2                !
 ! D30   D(4,5,7,9)             -4.3346         estimate D2E/DX2                !
 ! D31   D(4,5,7,10)           109.8353         estimate D2E/DX2                !
 ! D32   D(6,5,7,8)             47.5019         estimate D2E/DX2                !
 ! D33   D(6,5,7,9)            177.4228         estimate D2E/DX2                !
 ! D34   D(6,5,7,10)           -68.4073         estimate D2E/DX2                !
 ! D35   D(1,6,13,14)           -0.8082         estimate D2E/DX2                !
 ! D36   D(1,6,13,23)          178.6592         estimate D2E/DX2                !
 ! D37   D(5,6,13,14)          177.4689         estimate D2E/DX2                !
 ! D38   D(5,6,13,23)           -3.0638         estimate D2E/DX2                !
 ! D39   D(5,7,10,11)           64.996          estimate D2E/DX2                !
 ! D40   D(5,7,10,12)          -60.238          estimate D2E/DX2                !
 ! D41   D(8,7,10,11)          -52.7586         estimate D2E/DX2                !
 ! D42   D(8,7,10,12)         -177.9926         estimate D2E/DX2                !
 ! D43   D(9,7,10,11)         -179.5286         estimate D2E/DX2                !
 ! D44   D(9,7,10,12)           55.2374         estimate D2E/DX2                !
 ! D45   D(6,13,14,15)           2.3713         estimate D2E/DX2                !
 ! D46   D(6,13,14,24)        -179.1829         estimate D2E/DX2                !
 ! D47   D(23,13,14,15)       -177.1063         estimate D2E/DX2                !
 ! D48   D(23,13,14,24)          1.3395         estimate D2E/DX2                !
 ! D49   D(13,14,15,16)         -0.4787         estimate D2E/DX2                !
 ! D50   D(13,14,15,25)        178.1275         estimate D2E/DX2                !
 ! D51   D(24,14,15,16)       -178.934          estimate D2E/DX2                !
 ! D52   D(24,14,15,25)         -0.3279         estimate D2E/DX2                !
 ! D53   D(14,15,16,1)          -2.9009         estimate D2E/DX2                !
 ! D54   D(14,15,16,17)        178.7735         estimate D2E/DX2                !
 ! D55   D(25,15,16,1)         178.5196         estimate D2E/DX2                !
 ! D56   D(25,15,16,17)          0.194          estimate D2E/DX2                !
 ! D57   D(1,16,17,18)          71.4617         estimate D2E/DX2                !
 ! D58   D(1,16,17,19)        -162.5064         estimate D2E/DX2                !
 ! D59   D(15,16,17,18)       -110.2052         estimate D2E/DX2                !
 ! D60   D(15,16,17,19)         15.8266         estimate D2E/DX2                !
 ! D61   D(16,17,18,26)        -48.3514         estimate D2E/DX2                !
 ! D62   D(16,17,18,27)       -168.2717         estimate D2E/DX2                !
 ! D63   D(16,17,18,28)         72.2017         estimate D2E/DX2                !
 ! D64   D(19,17,18,26)       -177.532          estimate D2E/DX2                !
 ! D65   D(19,17,18,27)         62.5476         estimate D2E/DX2                !
 ! D66   D(19,17,18,28)        -56.9789         estimate D2E/DX2                !
 ! D67   D(16,17,19,29)         52.8395         estimate D2E/DX2                !
 ! D68   D(16,17,19,30)        -69.216          estimate D2E/DX2                !
 ! D69   D(16,17,19,31)        171.5148         estimate D2E/DX2                !
 ! D70   D(18,17,19,29)       -179.2762         estimate D2E/DX2                !
 ! D71   D(18,17,19,30)         58.6682         estimate D2E/DX2                !
 ! D72   D(18,17,19,31)        -60.6009         estimate D2E/DX2                !
 --------------------------------------------------------------------------------
 Trust Radius=3.00D-01 FncErr=1.00D-07 GrdErr=1.00D-06 EigMax=2.50D+02 EigMin=1.00D-04
 Number of steps in this run=    168 maximum allowed number of steps=    186.
 GradGradGradGradGradGradGradGradGradGradGradGradGradGradGradGradGradGrad

                          Input orientation:                          
 ---------------------------------------------------------------------
 Center     Atomic      Atomic             Coordinates (Angstroms)
 Number     Number       Type             X           Y           Z
 ---------------------------------------------------------------------
      1          6           0       -1.589156    1.219121   -1.239227
      2          6           0       -2.707816    1.317574   -2.110734
      3          6           0       -2.760407    0.625607   -3.294553
      4          6           0       -1.684451   -0.203529   -3.674726
      5          6           0       -0.578597   -0.291495   -2.864037
      6          6           0       -0.468025    0.421986   -1.627527
      7         16           0        0.755285   -1.316817   -3.460262
      8          8           0        1.228938   -2.173389   -2.371199
      9          8           0        0.307564   -1.947843   -4.701860
     10          7           0        2.031889   -0.357429   -3.885068
     11          1           0        2.440356    0.136636   -3.089797
     12          1           0        1.776719    0.300913   -4.624233
     13          6           0        0.689754    0.405725   -0.801244
     14          6           0        0.722654    1.163091    0.341882
     15          6           0       -0.390164    1.929141    0.752461
     16          6           0       -1.550284    1.946535    0.004599
     17          7           0       -2.698033    2.681062    0.393660
     18          6           0       -3.812735    1.816529    0.808987
     19          6           0       -2.467330    3.690082    1.421984
     20          1           0       -3.529161    1.971188   -1.839087
     21          1           0       -3.620088    0.718542   -3.949787
     22          1           0       -1.724814   -0.756136   -4.606913
     23          1           0        1.548500   -0.203933   -1.054645
     24          1           0        1.613959    1.157630    0.962420
     25          1           0       -0.323886    2.486302    1.679896
     26          1           0       -3.989412    1.020235    0.085611
     27          1           0       -4.721169    2.418861    0.893647
     28          1           0       -3.603728    1.355013    1.787049
     29          1           0       -1.649871    4.352101    1.126658
     30          1           0       -2.235083    3.249839    2.404437
     31          1           0       -3.377947    4.285337    1.526503
 ---------------------------------------------------------------------
                    Distance matrix (angstroms):
                    1          2          3          4          5
     1  C    0.000000
     2  C    1.421485   0.000000
     3  C    2.438946   1.372228   0.000000
     4  C    2.822175   2.409792   1.410559   0.000000
     5  C    2.437868   2.773111   2.405560   1.373998   0.000000
     6  C    1.429383   2.460128   2.841734   2.462110   1.431865
     7  S    4.106140   4.555689   4.020020   2.690300   1.784940
     8  O    4.553256   5.268083   4.960024   3.750649   2.655484
     9  O    5.061328   5.144842   4.244480   2.840029   2.627996
    10  N    4.753730   5.330919   4.927592   3.725468   2.803834
    11  H    4.564356   5.371857   5.227710   4.179939   3.057505
    12  H    4.861120   5.240451   4.739091   3.624324   2.999458
    13  C    2.459039   3.753627   4.262458   3.776895   2.519909
    14  C    2.801340   4.219871   5.064016   4.878006   3.753263
    15  C    2.430746   3.734088   4.867810   5.081677   4.248033
    16  C    1.441438   2.492009   3.754151   4.263590   3.765903
    17  N    2.456257   2.851523   4.222760   5.089201   4.892923
    18  C    3.081620   3.161420   4.400538   5.358535   5.328651
    19  C    3.736158   4.262244   5.632284   6.461389   6.147376
    20  H    2.165423   1.084256   2.126018   3.391447   3.856953
    21  H    3.423800   2.138503   1.084905   2.161611   3.383740
    22  H    3.906579   3.390792   2.168860   1.084425   2.137130
    23  H    3.450223   4.641824   4.926662   4.161345   2.793941
    24  H    3.887284   5.305432   6.126986   5.851101   4.642094
    25  H    3.424607   4.627950   5.843284   6.144778   5.331825
    26  H    2.748814   2.560240   3.618245   4.577179   4.696245
    27  H    3.974673   3.780573   4.959976   6.080181   6.215072
    28  H    3.638036   3.999597   5.202490   5.995303   5.787487
    29  H    3.926405   4.561613   5.887882   6.618780   6.215807
    30  H    4.221056   4.933953   6.296113   7.013213   6.560625
    31  H    4.500079   4.741961   6.084206   7.076060   6.932575
                    6          7          8          9         10
     6  C    0.000000
     7  S    2.806927   0.000000
     8  O    3.188841   1.464282   0.000000
     9  O    3.958428   1.462946   2.516303   0.000000
    10  N    3.457390   1.652454   2.496846   2.483921   0.000000
    11  H    3.267772   2.255933   2.705574   3.390074   1.021470
    12  H    3.746169   2.239465   3.390928   2.687256   1.022198
    13  C    1.422484   3.168883   3.067133   4.571669   3.448724
    14  C    2.417751   4.539527   4.330038   5.940500   4.679015
    15  C    2.818141   5.440159   5.404581   6.728109   5.709765
    16  C    2.481807   5.288702   5.508381   6.385024   5.767990
    17  N    3.763184   6.539201   6.828707   7.511637   7.064849
    18  C    4.366742   6.993651   7.172970   7.843264   7.805118
    19  C    4.896650   7.700039   7.901324   8.774263   8.049230
    20  H    3.437344   5.638764   6.332469   6.186657   6.366613
    21  H    3.926365   4.850382   5.862445   4.806420   5.753846
    22  H    3.441545   2.789277   3.966318   2.357911   3.846147
    23  H    2.187770   2.766712   2.390438   4.228868   2.875504
    24  H    3.403477   5.140071   4.728313   6.590501   5.095901
    25  H    3.901438   6.484563   6.366739   7.796614   6.678720
    26  H    3.961428   6.367666   6.592900   7.084728   7.343045
    27  H    5.332266   7.931164   8.194617   8.698618   8.726264
    28  H    4.728900   7.326250   7.286653   8.265168   8.177135
    29  H    4.942479   7.678623   7.943839   8.802981   7.800796
    30  H    5.232206   8.011950   8.013585   9.164082   8.412924
    31  H    5.774170   8.563619   8.839153   9.551337   8.950235
                   11         12         13         14         15
    11  H    0.000000
    12  H    1.679850   0.000000
    13  C    2.893871   3.975892   0.000000
    14  C    3.972471   5.149437   1.371649   0.000000
    15  C    5.097829   6.021241   2.429202   1.412010   0.000000
    16  C    5.364347   5.933220   2.835710   2.427713   1.380390
    17  N    6.709070   7.132164   4.252300   3.742729   2.453647
    18  C    7.558022   7.940968   4.985541   4.605966   3.424890
    19  C    7.554371   8.127432   5.069213   4.210499   2.804245
    20  H    6.369065   6.220869   4.618120   4.846398   4.070772
    21  H    6.148754   5.454797   5.346580   6.121720   5.831732
    22  H    4.521872   3.657648   4.654372   5.845007   6.141245
    23  H    2.247941   3.612328   1.083207   2.121570   3.402066
    24  H    4.259792   5.654304   2.128386   1.086059   2.157736
    25  H    5.992657   6.995035   3.392982   2.153234   1.083954
    26  H    7.225363   7.479861   4.801951   4.721191   3.771655
    27  H    8.506692   8.783806   6.016931   5.613965   4.360890
    28  H    7.861235   8.435927   5.102391   4.565405   3.424469
    29  H    7.230394   7.824730   4.976398   4.051486   2.756378
    30  H    7.857376   8.613531   5.188453   4.166156   2.806598
    31  H    8.507326   8.959786   6.084077   5.288353   3.882995
                   16         17         18         19         20
    16  C    0.000000
    17  N    1.417119   0.000000
    18  C    2.404710   1.470535   0.000000
    19  C    2.426913   1.459039   2.386647   0.000000
    20  H    2.704762   2.485931   2.667701   3.836230   0.000000
    21  H    4.629171   4.854606   4.887598   6.246185   2.456103
    22  H    5.347984   6.145503   6.349015   7.527800   4.284253
    23  H    3.917776   5.334212   6.024801   6.117509   5.579349
    24  H    3.398857   4.608429   5.468702   4.825083   5.912868
    25  H    2.145232   2.707196   3.657751   2.471832   4.787731
    26  H    2.610352   2.126240   1.090216   3.351224   2.195587
    27  H    3.326862   2.100432   1.093262   2.641010   3.014818
    28  H    2.782743   2.126081   1.101492   2.622445   3.678871
    29  H    2.656254   2.104353   3.347839   1.092577   4.242184
    30  H    2.815453   2.140340   2.662485   1.101347   4.617042
    31  H    3.335647   2.078297   2.607467   1.092921   4.087218
                   21         22         23         24         25
    21  H    0.000000
    22  H    2.489689   0.000000
    23  H    5.995591   4.861906   0.000000
    24  H    7.191511   6.769593   2.434479   0.000000
    25  H    6.758939   7.211101   4.268595   2.456703   0.000000
    26  H    4.063478   5.504878   5.785087   5.673221   4.257602
    27  H    5.249982   7.022457   7.069910   6.459820   4.467530
    28  H    5.772058   6.990709   6.086952   5.286135   3.471117
    29  H    6.546358   7.679423   5.978721   4.569925   2.354891
    30  H    6.978672   8.091182   6.181365   4.612144   2.181884
    31  H    6.539910   8.109753   7.147429   5.917759   3.547864
                   26         27         28         29         30
    26  H    0.000000
    27  H    1.773286   0.000000
    28  H    1.776435   1.782866   0.000000
    29  H    4.202209   3.636562   3.638160   0.000000
    30  H    3.664117   3.025497   2.417586   1.786105   0.000000
    31  H    3.620905   2.385055   2.950535   1.774987   1.774588
                   31
    31  H    0.000000
 Stoichiometry    C12H14N2O2S
 Framework group  C1[X(C12H14N2O2S)]
 Deg. of freedom    87
 Full point group                 C1      NOp   1
 Largest Abelian subgroup         C1      NOp   1
 Largest concise Abelian subgroup C1      NOp   1
                         Standard orientation:                         
 ---------------------------------------------------------------------
 Center     Atomic      Atomic             Coordinates (Angstroms)
 Number     Number       Type             X           Y           Z
 ---------------------------------------------------------------------
      1          6           0        1.076215    0.403298   -0.122867
      2          6           0        1.106153    1.811467   -0.314661
      3          6           0       -0.043507    2.560593   -0.324748
      4          6           0       -1.294762    1.933821   -0.148124
      5          6           0       -1.352399    0.569993    0.008463
      6          6           0       -0.184066   -0.257794    0.010496
      7         16           0       -2.984226   -0.136597    0.163001
      8          8           0       -2.991525   -1.095951    1.269214
      9          8           0       -3.943946    0.967258    0.188547
     10          7           0       -3.335900   -0.999177   -1.201874
     11          1           0       -2.728991   -1.811238   -1.326854
     12          1           0       -3.319127   -0.406769   -2.034737
     13          6           0       -0.215637   -1.677028    0.101267
     14          6           0        0.954442   -2.390456    0.043313
     15          6           0        2.207458   -1.747129   -0.055941
     16          6           0        2.292363   -0.370330   -0.107835
     17          7           0        3.530194    0.315605   -0.181971
     18          6           0        3.851050    1.045147    1.053867
     19          6           0        4.672729   -0.509324   -0.559993
     20          1           0        2.060989    2.299299   -0.475648
     21          1           0       -0.001044    3.633635   -0.479013
     22          1           0       -2.204999    2.523264   -0.150059
     23          1           0       -1.151505   -2.208319    0.224631
     24          1           0        0.923958   -3.474623    0.099660
     25          1           0        3.104533   -2.355469   -0.067590
     26          1           0        3.004694    1.641925    1.394615
     27          1           0        4.696070    1.713068    0.866668
     28          1           0        4.126835    0.345249    1.858461
     29          1           0        4.459600   -1.051055   -1.484563
     30          1           0        4.952267   -1.231977    0.222692
     31          1           0        5.527805    0.149556   -0.730872
 ---------------------------------------------------------------------
 Rotational constants (GHZ):           0.9723714           0.2665083           0.2247031
 General basis read from cards:  (6D, 7F)
 There are   355 symmetry adapted cartesian basis functions of A   symmetry.
 There are   355 symmetry adapted basis functions of A   symmetry.
   355 basis functions,   624 primitive gaussians,   355 cartesian basis functions
    66 alpha electrons       66 beta electrons
       nuclear repulsion energy      1363.7549226788 Hartrees.
 NAtoms=   31 NActive=   31 NUniq=   31 SFac= 1.00D+00 NAtFMM=   60 NAOKFM=F Big=F
 Integral buffers will be    131072 words long.
 Raffenetti 2 integral format.
 Two-electron integral symmetry is turned on.
 One-electron integrals computed using PRISM.
 NBasis=   355 RedAO= T EigKep=  1.59D-06  NBF=   355
 NBsUse=   351 1.00D-06 EigRej=  9.66D-07 NBFU=   351
 ExpMin= 4.05D-02 ExpMax= 2.19D+04 ExpMxC= 3.30D+03 IAcc=3 IRadAn=         5 AccDes= 0.00D+00
 Harris functional with IExCor= 1009 and IRadAn=       5 diagonalized for initial guess.
 HarFok:  IExCor= 1009 AccDes= 0.00D+00 IRadAn=         5 IDoV= 1 UseB2=F ITyADJ=14
 ICtDFT=  3500011 ScaDFX=  1.000000  1.000000  1.000000  1.000000
 FoFCou: FMM=F IPFlag=           0 FMFlag=      100000 FMFlg1=           0
         NFxFlg=           0 DoJE=T BraDBF=F KetDBF=T FulRan=T
         wScrn=  0.000000 ICntrl=       500 IOpCl=  0 I1Cent=   200000004 NGrid=           0
         NMat0=    1 NMatS0=      1 NMatT0=    0 NMatD0=    1 NMtDS0=    0 NMtDT0=    0
 Petite list used in FoFCou.
 Requested convergence on RMS density matrix=1.00D-08 within 128 cycles.
 Requested convergence on MAX density matrix=1.00D-06.
 Requested convergence on             energy=1.00D-06.
 No special actions if energy rises.
 SCF Done:  E(RM062X) =  -1123.45659183     A.U. after   16 cycles
            NFock= 16  Conv=0.93D-08     -V/T= 2.0069

 **********************************************************************

            Population analysis using the SCF Density.

 **********************************************************************

 Orbital symmetries:
       Occupied  (A) (A) (A) (A) (A) (A) (A) (A) (A) (A) (A) (A)
                 (A) (A) (A) (A) (A) (A) (A) (A) (A) (A) (A) (A)
                 (A) (A) (A) (A) (A) (A) (A) (A) (A) (A) (A) (A)
                 (A) (A) (A) (A) (A) (A) (A) (A) (A) (A) (A) (A)
                 (A) (A) (A) (A) (A) (A) (A) (A) (A) (A) (A) (A)
                 (A) (A) (A) (A) (A) (A)
       Virtual   (A) (A) (A) (A) (A) (A) (A) (A) (A) (A) (A) (A)
                 (A) (A) (A) (A) (A) (A) (A) (A) (A) (A) (A) (A)
                 (A) (A) (A) (A) (A) (A) (A) (A) (A) (A) (A) (A)
                 (A) (A) (A) (A) (A) (A) (A) (A) (A) (A) (A) (A)
                 (A) (A) (A) (A) (A) (A) (A) (A) (A) (A) (A) (A)
                 (A) (A) (A) (A) (A) (A) (A) (A) (A) (A) (A) (A)
                 (A) (A) (A) (A) (A) (A) (A) (A) (A) (A) (A) (A)
                 (A) (A) (A) (A) (A) (A) (A) (A) (A) (A) (A) (A)
                 (A) (A) (A) (A) (A) (A) (A) (A) (A) (A) (A) (A)
                 (A) (A) (A) (A) (A) (A) (A) (A) (A) (A) (A) (A)
                 (A) (A) (A) (A) (A) (A) (A) (A) (A) (A) (A) (A)
                 (A) (A) (A) (A) (A) (A) (A) (A) (A) (A) (A) (A)
                 (A) (A) (A) (A) (A) (A) (A) (A) (A) (A) (A) (A)
                 (A) (A) (A) (A) (A) (A) (A) (A) (A) (A) (A) (A)
                 (A) (A) (A) (A) (A) (A) (A) (A) (A) (A) (A) (A)
                 (A) (A) (A) (A) (A) (A) (A) (A) (A) (A) (A) (A)
                 (A) (A) (A) (A) (A) (A) (A) (A) (A) (A) (A) (A)
                 (A) (A) (A) (A) (A) (A) (A) (A) (A) (A) (A) (A)
                 (A) (A) (A) (A) (A) (A) (A) (A) (A) (A) (A) (A)
                 (A) (A) (A) (A) (A) (A) (A) (A) (A) (A) (A) (A)
                 (A) (A) (A) (A) (A) (A) (A) (A) (A) (A) (A) (A)
                 (A) (A) (A) (A) (A) (A) (A) (A) (A) (A) (A) (A)
                 (A) (A) (A) (A) (A) (A) (A) (A) (A) (A) (A) (A)
                 (A) (A) (A) (A) (A) (A) (A) (A) (A)
 The electronic state is 1-A.
 Alpha  occ. eigenvalues --  -90.16532 -19.63753 -19.63666 -14.80806 -14.79004
 Alpha  occ. eigenvalues --  -10.61045 -10.60185 -10.59599 -10.58656 -10.58622
 Alpha  occ. eigenvalues --  -10.58593 -10.58424 -10.57901 -10.57568 -10.57454
 Alpha  occ. eigenvalues --  -10.56845 -10.56837  -8.47487  -6.39710  -6.39644
 Alpha  occ. eigenvalues --   -6.39561  -1.23895  -1.12009  -1.07128  -1.03276
 Alpha  occ. eigenvalues --   -1.00017  -0.94607  -0.89867  -0.86371  -0.84625
 Alpha  occ. eigenvalues --   -0.81998  -0.76855  -0.76154  -0.72221  -0.70970
 Alpha  occ. eigenvalues --   -0.67793  -0.63277  -0.62084  -0.60756  -0.59587
 Alpha  occ. eigenvalues --   -0.58677  -0.57087  -0.55800  -0.55066  -0.53738
 Alpha  occ. eigenvalues --   -0.52807  -0.51280  -0.50252  -0.49159  -0.48738
 Alpha  occ. eigenvalues --   -0.47679  -0.46962  -0.46011  -0.45025  -0.43626
 Alpha  occ. eigenvalues --   -0.42295  -0.41707  -0.40933  -0.40147  -0.39154
 Alpha  occ. eigenvalues --   -0.37496  -0.36822  -0.36284  -0.32005  -0.31837
 Alpha  occ. eigenvalues --   -0.27222
 Alpha virt. eigenvalues --   -0.04367  -0.00863   0.00341   0.01013   0.01557
 Alpha virt. eigenvalues --    0.02482   0.02956   0.03298   0.03532   0.04078
 Alpha virt. eigenvalues --    0.04819   0.05503   0.05880   0.06352   0.06755
 Alpha virt. eigenvalues --    0.07410   0.08002   0.08569   0.08616   0.09340
 Alpha virt. eigenvalues --    0.09838   0.10084   0.10182   0.10800   0.11304
 Alpha virt. eigenvalues --    0.11690   0.12184   0.12661   0.12904   0.13777
 Alpha virt. eigenvalues --    0.14096   0.14766   0.15224   0.15832   0.16044
 Alpha virt. eigenvalues --    0.16501   0.17045   0.17290   0.17852   0.18090
 Alpha virt. eigenvalues --    0.18649   0.18989   0.19588   0.19813   0.19984
 Alpha virt. eigenvalues --    0.20499   0.20618   0.21749   0.21910   0.22446
 Alpha virt. eigenvalues --    0.22801   0.23229   0.23946   0.24058   0.24728
 Alpha virt. eigenvalues --    0.24931   0.25144   0.25773   0.26201   0.26504
 Alpha virt. eigenvalues --    0.26674   0.27121   0.27496   0.27847   0.28472
 Alpha virt. eigenvalues --    0.28522   0.29329   0.29795   0.29943   0.30362
 Alpha virt. eigenvalues --    0.30771   0.31331   0.31895   0.32043   0.32682
 Alpha virt. eigenvalues --    0.33152   0.33420   0.33974   0.34446   0.35467
 Alpha virt. eigenvalues --    0.35525   0.36321   0.36647   0.37243   0.37925
 Alpha virt. eigenvalues --    0.38388   0.39759   0.40081   0.41426   0.42193
 Alpha virt. eigenvalues --    0.43208   0.44788   0.45715   0.46387   0.48588
 Alpha virt. eigenvalues --    0.48879   0.49563   0.55463   0.56341   0.58570
 Alpha virt. eigenvalues --    0.61690   0.63370   0.66056   0.66787   0.69233
 Alpha virt. eigenvalues --    0.70145   0.70831   0.71488   0.71962   0.72563
 Alpha virt. eigenvalues --    0.73439   0.74323   0.75021   0.76962   0.77589
 Alpha virt. eigenvalues --    0.77964   0.78711   0.79711   0.79965   0.80985
 Alpha virt. eigenvalues --    0.81582   0.82403   0.83517   0.84584   0.86075
 Alpha virt. eigenvalues --    0.86887   0.90895   0.92097   0.93159   0.93448
 Alpha virt. eigenvalues --    0.94429   0.95580   0.96017   0.96968   0.98349
 Alpha virt. eigenvalues --    0.99304   1.00323   1.00383   1.02240   1.03025
 Alpha virt. eigenvalues --    1.03525   1.05190   1.05596   1.05974   1.07687
 Alpha virt. eigenvalues --    1.08012   1.08917   1.09669   1.11294   1.12337
 Alpha virt. eigenvalues --    1.13405   1.13858   1.14346   1.15267   1.16495
 Alpha virt. eigenvalues --    1.17049   1.18088   1.19453   1.19843   1.20326
 Alpha virt. eigenvalues --    1.21723   1.22215   1.25006   1.25696   1.27883
 Alpha virt. eigenvalues --    1.28878   1.30551   1.30705   1.32030   1.34520
 Alpha virt. eigenvalues --    1.35090   1.36406   1.37421   1.40784   1.41227
 Alpha virt. eigenvalues --    1.41739   1.42187   1.42955   1.43639   1.44916
 Alpha virt. eigenvalues --    1.45839   1.48769   1.49778   1.50103   1.51432
 Alpha virt. eigenvalues --    1.52552   1.53648   1.54895   1.55950   1.58122
 Alpha virt. eigenvalues --    1.62188   1.63487   1.70102   1.70719   1.72263
 Alpha virt. eigenvalues --    1.78061   1.79689   1.80439   1.81387   1.83528
 Alpha virt. eigenvalues --    1.83813   1.86378   1.87240   1.88073   1.89377
 Alpha virt. eigenvalues --    1.91095   1.92906   1.93774   1.95764   1.96441
 Alpha virt. eigenvalues --    1.98724   2.00014   2.01179   2.01768   2.04075
 Alpha virt. eigenvalues --    2.05211   2.06861   2.07777   2.10178   2.11059
 Alpha virt. eigenvalues --    2.12193   2.14495   2.16701   2.18437   2.19727
 Alpha virt. eigenvalues --    2.20781   2.21510   2.22528   2.23162   2.24047
 Alpha virt. eigenvalues --    2.25668   2.26661   2.29948   2.30809   2.32286
 Alpha virt. eigenvalues --    2.33007   2.34416   2.34903   2.37916   2.39328
 Alpha virt. eigenvalues --    2.39764   2.43431   2.45076   2.49726   2.50294
 Alpha virt. eigenvalues --    2.52453   2.57288   2.60620   2.62402   2.63713
 Alpha virt. eigenvalues --    2.67769   2.68421   2.69670   2.71402   2.74657
 Alpha virt. eigenvalues --    2.76830   2.80912   2.83840   2.86420   2.90275
 Alpha virt. eigenvalues --    2.91041   2.95625   2.98893   3.00344   3.03730
 Alpha virt. eigenvalues --    3.15235   3.35486   3.44953   3.91493   4.08927
 Alpha virt. eigenvalues --    4.23624   4.27139   4.28251   4.29351   4.32702
 Alpha virt. eigenvalues --    4.34829   4.36816   4.37360   4.41759   4.44038
 Alpha virt. eigenvalues --    4.44287   4.47076   4.52554   4.59736   4.84020
          Condensed to atoms (all electrons):
               1          2          3          4          5          6
     1  C   14.703190  -4.719062   0.741491  -0.612547  -1.550914  -1.591623
     2  C   -4.719062  16.601158  -3.106970  -1.790268   1.839886  -1.402283
     3  C    0.741491  -3.106970  12.124590  -0.157372  -4.385350  -0.878283
     4  C   -0.612547  -1.790268  -0.157372  13.874405  -3.598234   1.071781
     5  C   -1.550914   1.839886  -4.385350  -3.598234  16.976151   3.493470
     6  C   -1.591623  -1.402283  -0.878283   1.071781   3.493470  19.302473
     7  S   -0.150803   0.129352  -0.234866   0.352692  -0.192431   1.916659
     8  O    0.015738  -0.057216   0.081229   0.165336  -0.223331   0.499967
     9  O   -0.077670   0.105757   0.112209  -0.197404  -0.076408  -0.035051
    10  N    0.128595  -0.059547   0.152577   0.055911  -0.514418  -0.564379
    11  H   -0.005755   0.001167  -0.001281   0.000691  -0.012923  -0.003536
    12  H   -0.002148   0.005282  -0.012194  -0.051854   0.037262   0.021059
    13  C   -2.136981  -1.332636   1.104597  -1.229370  -1.487840  -0.115648
    14  C    0.503178   4.039550  -0.442047  -0.032644  -2.464225 -12.490481
    15  C   -1.307268  -2.935665  -0.321185  -0.944636   0.325831   0.292055
    16  C    2.454059  -1.557919   0.963702  -1.106422  -1.327516  -4.110771
    17  N   -0.148691   0.048132   0.134295   0.048070  -0.088965   0.039608
    18  C   -0.087506   0.048687  -0.025985   0.008915   0.018660   0.037517
    19  C    0.101168  -0.109292   0.031513   0.014127  -0.058930  -0.117083
    20  H   -0.021898   0.289452  -0.029519  -0.017982   0.001754  -0.001979
    21  H    0.012420   0.031928   0.257570  -0.024467   0.045141  -0.006282
    22  H    0.016310  -0.017686   0.018504   0.374457  -0.093715   0.012242
    23  H    0.002350   0.022619  -0.004829   0.018869  -0.030448  -0.166378
    24  H   -0.001399   0.001254   0.001062  -0.000844  -0.004631  -0.007731
    25  H    0.026422   0.016344   0.001981   0.000362   0.003406   0.011066
    26  H    0.056844  -0.002679  -0.040951   0.001985  -0.008265   0.015868
    27  H    0.025000   0.000596  -0.012373  -0.000457   0.001782   0.002942
    28  H   -0.043187   0.016305   0.016317  -0.000050  -0.003445  -0.016562
    29  H   -0.007935  -0.000215   0.000312  -0.000085   0.000945  -0.001681
    30  H   -0.014795   0.010389   0.003195   0.000077  -0.001282  -0.009190
    31  H    0.018349  -0.011666  -0.004023  -0.000177   0.000500   0.002089
               7          8          9         10         11         12
     1  C   -0.150803   0.015738  -0.077670   0.128595  -0.005755  -0.002148
     2  C    0.129352  -0.057216   0.105757  -0.059547   0.001167   0.005282
     3  C   -0.234866   0.081229   0.112209   0.152577  -0.001281  -0.012194
     4  C    0.352692   0.165336  -0.197404   0.055911   0.000691  -0.051854
     5  C   -0.192431  -0.223331  -0.076408  -0.514418  -0.012923   0.037262
     6  C    1.916659   0.499967  -0.035051  -0.564379  -0.003536   0.021059
     7  S   17.067631   0.535873   0.244379  -0.944437   0.054972   0.117548
     8  O    0.535873   8.750620  -0.140624  -0.173206  -0.003742   0.009620
     9  O    0.244379  -0.140624   8.766155  -0.115339   0.011796  -0.006463
    10  N   -0.944437  -0.173206  -0.115339   8.323814   0.198064   0.223204
    11  H    0.054972  -0.003742   0.011796   0.198064   0.327960  -0.021930
    12  H    0.117548   0.009620  -0.006463   0.223204  -0.021930   0.310803
    13  C   -2.570444  -0.501082  -0.029324   0.752563   0.016704  -0.057564
    14  C   -1.575845  -0.435798   0.012384   0.373764  -0.000446  -0.020137
    15  C    0.034102  -0.006140  -0.002062   0.030958  -0.005160   0.001059
    16  C   -0.280382  -0.003690  -0.004485   0.082783  -0.002303  -0.002553
    17  N   -0.009201  -0.000101  -0.000091   0.000764  -0.000009  -0.000005
    18  C   -0.004300   0.000202  -0.000108   0.000790  -0.000020  -0.000006
    19  C   -0.004980  -0.000150  -0.000013   0.000427   0.000010  -0.000013
    20  H    0.000520  -0.000001  -0.000002   0.000030   0.000000  -0.000000
    21  H    0.000751   0.000026   0.000327   0.000047   0.000000   0.000000
    22  H   -0.004242   0.000304  -0.001121   0.000758  -0.000011  -0.000006
    23  H    0.073592  -0.018050   0.002015  -0.020070   0.002203   0.000253
    24  H   -0.000828   0.000056   0.000001  -0.000007  -0.000004   0.000000
    25  H   -0.000150   0.000007  -0.000000   0.000010  -0.000000  -0.000000
    26  H   -0.000423   0.000002  -0.000001  -0.000001   0.000000  -0.000000
    27  H    0.000025  -0.000000   0.000000   0.000000   0.000000   0.000000
    28  H   -0.000049  -0.000000  -0.000000  -0.000000   0.000000  -0.000000
    29  H    0.000023   0.000000   0.000000  -0.000000  -0.000000   0.000000
    30  H   -0.000020  -0.000000  -0.000000  -0.000000   0.000000  -0.000000
    31  H    0.000005   0.000000  -0.000000   0.000000  -0.000000   0.000000
              13         14         15         16         17         18
     1  C   -2.136981   0.503178  -1.307268   2.454059  -0.148691  -0.087506
     2  C   -1.332636   4.039550  -2.935665  -1.557919   0.048132   0.048687
     3  C    1.104597  -0.442047  -0.321185   0.963702   0.134295  -0.025985
     4  C   -1.229370  -0.032644  -0.944636  -1.106422   0.048070   0.008915
     5  C   -1.487840  -2.464225   0.325831  -1.327516  -0.088965   0.018660
     6  C   -0.115648 -12.490481   0.292055  -4.110771   0.039608   0.037517
     7  S   -2.570444  -1.575845   0.034102  -0.280382  -0.009201  -0.004300
     8  O   -0.501082  -0.435798  -0.006140  -0.003690  -0.000101   0.000202
     9  O   -0.029324   0.012384  -0.002062  -0.004485  -0.000091  -0.000108
    10  N    0.752563   0.373764   0.030958   0.082783   0.000764   0.000790
    11  H    0.016704  -0.000446  -0.005160  -0.002303  -0.000009  -0.000020
    12  H   -0.057564  -0.020137   0.001059  -0.002553  -0.000005  -0.000006
    13  C   22.724463  -8.341694  -0.384049  -0.363590  -0.050031  -0.034945
    14  C   -8.341694  28.277710  -0.981038   0.259289   0.044647  -0.015416
    15  C   -0.384049  -0.981038  13.739482  -1.355576  -0.434868   0.126480
    16  C   -0.363590   0.259289  -1.355576  12.633132   0.247336  -0.487190
    17  N   -0.050031   0.044647  -0.434868   0.247336   7.197495   0.271230
    18  C   -0.034945  -0.015416   0.126480  -0.487190   0.271230   5.612289
    19  C    0.062785  -0.044215  -0.188821  -0.091503   0.248675  -0.156476
    20  H    0.005951  -0.003946   0.017847   0.033171   0.021686  -0.007784
    21  H   -0.002517  -0.000214   0.000030  -0.004255   0.000401  -0.000100
    22  H    0.002057  -0.001332  -0.000474   0.000925  -0.000001   0.000012
    23  H    0.154464   0.253067   0.003094   0.003875   0.000197   0.000071
    24  H    0.026382   0.251271   0.007631   0.038173  -0.001004  -0.000105
    25  H    0.052809   0.086409   0.190699  -0.058401  -0.015383  -0.000752
    26  H   -0.005066  -0.002225  -0.024898  -0.012790  -0.038528   0.388155
    27  H   -0.002213   0.003315  -0.002995   0.011636  -0.055956   0.389574
    28  H    0.007857  -0.016478   0.025867   0.019127  -0.058725   0.382109
    29  H    0.003924   0.008372   0.027623  -0.075718  -0.035168   0.019911
    30  H    0.001656   0.001728   0.024004  -0.022253  -0.024486  -0.014373
    31  H   -0.000048   0.000329  -0.008119   0.011272  -0.057206  -0.010884
              19         20         21         22         23         24
     1  C    0.101168  -0.021898   0.012420   0.016310   0.002350  -0.001399
     2  C   -0.109292   0.289452   0.031928  -0.017686   0.022619   0.001254
     3  C    0.031513  -0.029519   0.257570   0.018504  -0.004829   0.001062
     4  C    0.014127  -0.017982  -0.024467   0.374457   0.018869  -0.000844
     5  C   -0.058930   0.001754   0.045141  -0.093715  -0.030448  -0.004631
     6  C   -0.117083  -0.001979  -0.006282   0.012242  -0.166378  -0.007731
     7  S   -0.004980   0.000520   0.000751  -0.004242   0.073592  -0.000828
     8  O   -0.000150  -0.000001   0.000026   0.000304  -0.018050   0.000056
     9  O   -0.000013  -0.000002   0.000327  -0.001121   0.002015   0.000001
    10  N    0.000427   0.000030   0.000047   0.000758  -0.020070  -0.000007
    11  H    0.000010   0.000000   0.000000  -0.000011   0.002203  -0.000004
    12  H   -0.000013  -0.000000   0.000000  -0.000006   0.000253   0.000000
    13  C    0.062785   0.005951  -0.002517   0.002057   0.154464   0.026382
    14  C   -0.044215  -0.003946  -0.000214  -0.001332   0.253067   0.251271
    15  C   -0.188821   0.017847   0.000030  -0.000474   0.003094   0.007631
    16  C   -0.091503   0.033171  -0.004255   0.000925   0.003875   0.038173
    17  N    0.248675   0.021686   0.000401  -0.000001   0.000197  -0.001004
    18  C   -0.156476  -0.007784  -0.000100   0.000012   0.000071  -0.000105
    19  C    5.554858   0.007018   0.000214  -0.000009   0.000054   0.000998
    20  H    0.007018   0.468827  -0.003102  -0.000128   0.000001   0.000000
    21  H    0.000214  -0.003102   0.475948  -0.003033   0.000000  -0.000000
    22  H   -0.000009  -0.000128  -0.003033   0.425302  -0.000011  -0.000000
    23  H    0.000054   0.000001   0.000000  -0.000011   0.475877  -0.003443
    24  H    0.000998   0.000000  -0.000000  -0.000000  -0.003443   0.481924
    25  H   -0.013020  -0.000010  -0.000000  -0.000000  -0.000149  -0.003330
    26  H    0.018457  -0.001551   0.000004  -0.000000  -0.000000   0.000000
    27  H   -0.020054   0.000001  -0.000000   0.000000   0.000000  -0.000000
    28  H   -0.005509   0.000230   0.000000  -0.000000  -0.000000   0.000002
    29  H    0.409412  -0.000015  -0.000000  -0.000000   0.000000  -0.000001
    30  H    0.370473   0.000007   0.000000  -0.000000   0.000000   0.000007
    31  H    0.400685   0.000010  -0.000000   0.000000  -0.000000  -0.000000
              25         26         27         28         29         30
     1  C    0.026422   0.056844   0.025000  -0.043187  -0.007935  -0.014795
     2  C    0.016344  -0.002679   0.000596   0.016305  -0.000215   0.010389
     3  C    0.001981  -0.040951  -0.012373   0.016317   0.000312   0.003195
     4  C    0.000362   0.001985  -0.000457  -0.000050  -0.000085   0.000077
     5  C    0.003406  -0.008265   0.001782  -0.003445   0.000945  -0.001282
     6  C    0.011066   0.015868   0.002942  -0.016562  -0.001681  -0.009190
     7  S   -0.000150  -0.000423   0.000025  -0.000049   0.000023  -0.000020
     8  O    0.000007   0.000002  -0.000000  -0.000000   0.000000  -0.000000
     9  O   -0.000000  -0.000001   0.000000  -0.000000   0.000000  -0.000000
    10  N    0.000010  -0.000001   0.000000  -0.000000  -0.000000  -0.000000
    11  H   -0.000000   0.000000   0.000000   0.000000  -0.000000   0.000000
    12  H   -0.000000  -0.000000   0.000000  -0.000000   0.000000  -0.000000
    13  C    0.052809  -0.005066  -0.002213   0.007857   0.003924   0.001656
    14  C    0.086409  -0.002225   0.003315  -0.016478   0.008372   0.001728
    15  C    0.190699  -0.024898  -0.002995   0.025867   0.027623   0.024004
    16  C   -0.058401  -0.012790   0.011636   0.019127  -0.075718  -0.022253
    17  N   -0.015383  -0.038528  -0.055956  -0.058725  -0.035168  -0.024486
    18  C   -0.000752   0.388155   0.389574   0.382109   0.019911  -0.014373
    19  C   -0.013020   0.018457  -0.020054  -0.005509   0.409412   0.370473
    20  H   -0.000010  -0.001551   0.000001   0.000230  -0.000015   0.000007
    21  H   -0.000000   0.000004  -0.000000   0.000000  -0.000000   0.000000
    22  H   -0.000000  -0.000000   0.000000  -0.000000  -0.000000  -0.000000
    23  H   -0.000149  -0.000000   0.000000  -0.000000   0.000000   0.000000
    24  H   -0.003330   0.000000  -0.000000   0.000002  -0.000001   0.000007
    25  H    0.497535   0.000013   0.000000  -0.000033  -0.001904  -0.001593
    26  H    0.000013   0.479116  -0.020554  -0.031258  -0.000136  -0.000212
    27  H    0.000000  -0.020554   0.492662  -0.038508   0.000195  -0.001734
    28  H   -0.000033  -0.031258  -0.038508   0.514003  -0.000218   0.009331
    29  H   -0.001904  -0.000136   0.000195  -0.000218   0.477588  -0.037805
    30  H   -0.001593  -0.000212  -0.001734   0.009331  -0.037805   0.527554
    31  H    0.000293   0.000228   0.003870  -0.001801  -0.014845  -0.039436
              31
     1  C    0.018349
     2  C   -0.011666
     3  C   -0.004023
     4  C   -0.000177
     5  C    0.000500
     6  C    0.002089
     7  S    0.000005
     8  O    0.000000
     9  O   -0.000000
    10  N    0.000000
    11  H   -0.000000
    12  H    0.000000
    13  C   -0.000048
    14  C    0.000329
    15  C   -0.008119
    16  C    0.011272
    17  N   -0.057206
    18  C   -0.010884
    19  C    0.400685
    20  H    0.000010
    21  H   -0.000000
    22  H    0.000000
    23  H   -0.000000
    24  H   -0.000000
    25  H    0.000293
    26  H    0.000228
    27  H    0.003870
    28  H   -0.001801
    29  H   -0.014845
    30  H   -0.039436
    31  H    0.488564
 Mulliken charges:
               1
     1  C   -0.324933
     2  C   -0.104753
     3  C   -0.087918
     4  C   -0.222866
     5  C   -0.621520
     6  C    0.800143
     7  S    1.445276
     8  O   -0.495850
     9  O   -0.568857
    10  N   -0.933656
    11  H    0.443554
    12  H    0.448782
    13  C   -0.271170
    14  C   -1.246831
    15  C    0.056190
    16  C    0.108838
    17  N   -0.284116
    18  C   -0.458654
    19  C   -0.410807
    20  H    0.241410
    21  H    0.219161
    22  H    0.270896
    23  H    0.230775
    24  H    0.214566
    25  H    0.207368
    26  H    0.228864
    27  H    0.223243
    28  H    0.224674
    29  H    0.227423
    30  H    0.218758
    31  H    0.222011
 Sum of Mulliken charges =  -0.00000
 Mulliken charges with hydrogens summed into heavy atoms:
               1
     1  C   -0.324933
     2  C    0.136657
     3  C    0.131243
     4  C    0.048030
     5  C   -0.621520
     6  C    0.800143
     7  S    1.445276
     8  O   -0.495850
     9  O   -0.568857
    10  N   -0.041320
    13  C   -0.040395
    14  C   -1.032265
    15  C    0.263558
    16  C    0.108838
    17  N   -0.284116
    18  C    0.218128
    19  C    0.257384
 Electronic spatial extent (au):  <R**2>=           4832.5291
 Charge=             -0.0000 electrons
 Dipole moment (field-independent basis, Debye):
    X=              6.7839    Y=             -0.0143    Z=             -3.3787  Tot=              7.5787
 Quadrupole moment (field-independent basis, Debye-Ang):
   XX=           -118.6141   YY=            -98.2303   ZZ=           -110.3917
   XY=             -0.1205   XZ=             13.3242   YZ=              4.0367
 Traceless Quadrupole moment (field-independent basis, Debye-Ang):
   XX=             -9.5354   YY=             10.8484   ZZ=             -1.3131
   XY=             -0.1205   XZ=             13.3242   YZ=              4.0367
 Octapole moment (field-independent basis, Debye-Ang**2):
  XXX=            149.6772  YYY=              1.0813  ZZZ=            -11.4667  XYY=              4.1964
  XXY=             -6.3926  XXZ=            -29.9231  XZZ=            -16.2153  YZZ=              0.8020
  YYZ=             -6.8409  XYZ=             -3.1750
 Hexadecapole moment (field-independent basis, Debye-Ang**3):
 XXXX=          -5007.1374 YYYY=          -1179.5524 ZZZZ=           -332.8648 XXXY=             29.3302
 XXXZ=             80.2838 YYYX=             -4.8278 YYYZ=             -7.0475 ZZZX=             40.7380
 ZZZY=             15.6291 XXYY=          -1018.2483 XXZZ=           -843.9095 YYZZ=           -297.9346
 XXYZ=             34.6599 YYXZ=             16.0435 ZZXY=             -0.1505
 N-N= 1.363754922679D+03 E-N=-5.357430121551D+03  KE= 1.115811321331D+03
 Calling FoFJK, ICntrl=      2127 FMM=F ISym2X=0 I1Cent= 0 IOpClX= 0 NMat=1 NMatS=1 NMatT=0.
 ***** Axes restored to original set *****
 -------------------------------------------------------------------
 Center     Atomic                   Forces (Hartrees/Bohr)
 Number     Number              X              Y              Z
 -------------------------------------------------------------------
      1        6           0.000142637    0.000426817    0.000700843
      2        6          -0.000811280   -0.000070137   -0.000507803
      3        6           0.000590880    0.000107167    0.001404402
      4        6          -0.000488100    0.001023345    0.000496242
      5        6           0.001390450    0.003525403   -0.000201796
      6        6          -0.002588579    0.000075471   -0.001319583
      7       16          -0.002863487   -0.037576454   -0.001001593
      8        8          -0.002612031    0.013881372   -0.004807314
      9        8           0.000784805    0.011881824    0.006531540
     10        7           0.003814966    0.014174459   -0.000485678
     11        1          -0.000744300   -0.002249872   -0.001737650
     12        1           0.001382314   -0.003133751    0.000967699
     13        6           0.001298202    0.002216339    0.000865695
     14        6          -0.000023761   -0.000187135   -0.001206496
     15        6          -0.000602300   -0.000410907   -0.000686054
     16        6           0.001923062    0.000249770   -0.001232526
     17        7          -0.000871643   -0.002460157    0.004505463
     18        6           0.000636216    0.001192997   -0.000184138
     19        6          -0.001318412    0.000137124   -0.003860830
     20        1           0.000837836    0.001526569    0.000760757
     21        1          -0.000303183    0.000166475    0.000102441
     22        1           0.001893272   -0.001323850    0.000217878
     23        1          -0.001323302   -0.002422344    0.000151314
     24        1          -0.000031615   -0.000123391    0.000044519
     25        1          -0.000109042   -0.000187901   -0.000063354
     26        1           0.000694031   -0.000022485   -0.000080005
     27        1          -0.000331132    0.000541433   -0.000137921
     28        1          -0.000243832   -0.000627075    0.000388438
     29        1          -0.000102390   -0.000231626   -0.000587353
     30        1           0.000109892   -0.000353120    0.001067606
     31        1          -0.000130172    0.000253645   -0.000104740
 -------------------------------------------------------------------
 Cartesian Forces:  Max     0.037576454 RMS     0.004835460

 GradGradGradGradGradGradGradGradGradGradGradGradGradGradGradGradGradGrad
 Berny optimization.
 FormGI is forming the generalized inverse of G from B-inverse, IUseBI=4.
 Internal  Forces:  Max     0.012542076 RMS     0.002149129
 Search for a local minimum.
 Step number   1 out of a maximum of  168
 All quantities printed in internal units (Hartrees-Bohrs-Radians)
 Mixed Optimization -- RFO/linear search
 Second derivative matrix not updated -- first step.
 ITU=  0
     Eigenvalues ---    0.00570   0.00759   0.00911   0.01465   0.01468
     Eigenvalues ---    0.01656   0.01720   0.01764   0.01801   0.01925
     Eigenvalues ---    0.01939   0.02026   0.02059   0.02080   0.02151
     Eigenvalues ---    0.02179   0.02179   0.02219   0.02282   0.02307
     Eigenvalues ---    0.02815   0.04459   0.07185   0.07234   0.07459
     Eigenvalues ---    0.07671   0.09230   0.10255   0.14471   0.15993
     Eigenvalues ---    0.15996   0.15997   0.15998   0.15999   0.15999
     Eigenvalues ---    0.16000   0.16000   0.16000   0.16000   0.16000
     Eigenvalues ---    0.16000   0.16000   0.16000   0.17306   0.19700
     Eigenvalues ---    0.19923   0.22058   0.22117   0.23482   0.23507
     Eigenvalues ---    0.24853   0.24890   0.24988   0.24989   0.25000
     Eigenvalues ---    0.27340   0.33518   0.33534   0.34438   0.34477
     Eigenvalues ---    0.34516   0.34788   0.35272   0.35408   0.35465
     Eigenvalues ---    0.35485   0.35521   0.35610   0.35676   0.36681
     Eigenvalues ---    0.37085   0.38224   0.39203   0.40812   0.41496
     Eigenvalues ---    0.42280   0.42858   0.42897   0.43225   0.43989
     Eigenvalues ---    0.44104   0.47664   0.48450   0.49577   0.49823
     Eigenvalues ---    0.89835   0.90383
 RFO step:  Lambda=-4.29739315D-03 EMin= 5.69521551D-03
 Linear search not attempted -- first point.
 Iteration  1 RMS(Cart)=  0.06785085 RMS(Int)=  0.00142761
 Iteration  2 RMS(Cart)=  0.00234874 RMS(Int)=  0.00016665
 Iteration  3 RMS(Cart)=  0.00000183 RMS(Int)=  0.00016665
 Iteration  4 RMS(Cart)=  0.00000000 RMS(Int)=  0.00016665
 Variable       Old X    -DE/DX   Delta X   Delta X   Delta X     New X
                                 (Linear)    (Quad)   (Total)
    R1        2.68622  -0.00122   0.00000  -0.00286  -0.00286   2.68335
    R2        2.70114  -0.00139   0.00000  -0.00374  -0.00377   2.69737
    R3        2.72392  -0.00207   0.00000  -0.00540  -0.00542   2.71850
    R4        2.59314  -0.00011   0.00000  -0.00005  -0.00005   2.59309
    R5        2.04895   0.00048   0.00000   0.00133   0.00133   2.05027
    R6        2.66557   0.00139   0.00000   0.00335   0.00336   2.66893
    R7        2.05017   0.00019   0.00000   0.00054   0.00054   2.05071
    R8        2.59648  -0.00153   0.00000  -0.00301  -0.00300   2.59348
    R9        2.04927   0.00042   0.00000   0.00116   0.00116   2.05043
   R10        2.70583  -0.00158   0.00000  -0.00404  -0.00404   2.70179
   R11        3.37305   0.00173   0.00000   0.00624   0.00624   3.37929
   R12        2.68810  -0.00032   0.00000  -0.00075  -0.00075   2.68736
   R13        2.76709  -0.01254   0.00000  -0.01389  -0.01389   2.75320
   R14        2.76457  -0.01091   0.00000  -0.01201  -0.01201   2.75256
   R15        3.12269   0.00886   0.00000   0.02076   0.02076   3.14344
   R16        1.93030  -0.00274   0.00000  -0.00616  -0.00616   1.92414
   R17        1.93168  -0.00306   0.00000  -0.00689  -0.00689   1.92478
   R18        2.59204  -0.00087   0.00000  -0.00155  -0.00153   2.59051
   R19        2.04697   0.00028   0.00000   0.00078   0.00078   2.04774
   R20        2.66831   0.00045   0.00000   0.00119   0.00121   2.66952
   R21        2.05235   0.00000   0.00000   0.00000   0.00000   2.05235
   R22        2.60856  -0.00080   0.00000  -0.00162  -0.00162   2.60694
   R23        2.04838  -0.00016   0.00000  -0.00044  -0.00044   2.04794
   R24        2.67797   0.00072   0.00000   0.00165   0.00165   2.67962
   R25        2.77891  -0.00122   0.00000  -0.00337  -0.00337   2.77554
   R26        2.75718  -0.00282   0.00000  -0.00750  -0.00750   2.74968
   R27        2.06021  -0.00004   0.00000  -0.00013  -0.00013   2.06008
   R28        2.06597   0.00056   0.00000   0.00161   0.00161   2.06758
   R29        2.08152   0.00056   0.00000   0.00166   0.00166   2.08318
   R30        2.06467  -0.00006   0.00000  -0.00016  -0.00016   2.06451
   R31        2.08124   0.00112   0.00000   0.00329   0.00329   2.08454
   R32        2.06532   0.00024   0.00000   0.00067   0.00067   2.06600
    A1        2.08211   0.00037   0.00000   0.00134   0.00132   2.08343
    A2        2.11217  -0.00100   0.00000  -0.00341  -0.00336   2.10881
    A3        2.08828   0.00062   0.00000   0.00181   0.00176   2.09004
    A4        2.12252  -0.00094   0.00000  -0.00387  -0.00392   2.11860
    A5        2.07635  -0.00099   0.00000  -0.00699  -0.00699   2.06936
    A6        2.08414   0.00192   0.00000   0.01069   0.01069   2.09483
    A7        2.09404   0.00008   0.00000   0.00109   0.00104   2.09508
    A8        2.10389  -0.00035   0.00000  -0.00248  -0.00249   2.10141
    A9        2.08519   0.00027   0.00000   0.00126   0.00125   2.08644
   A10        2.08580   0.00008   0.00000   0.00068   0.00064   2.08644
   A11        2.09766   0.00227   0.00000   0.01364   0.01364   2.11130
   A12        2.09963  -0.00235   0.00000  -0.01445  -0.01445   2.08517
   A13        2.14096  -0.00075   0.00000  -0.00346  -0.00351   2.13746
   A14        2.02767   0.00001   0.00000   0.00010   0.00009   2.02777
   A15        2.11412   0.00074   0.00000   0.00302   0.00301   2.11713
   A16        2.03970   0.00115   0.00000   0.00400   0.00397   2.04367
   A17        2.07941  -0.00010   0.00000  -0.00044  -0.00046   2.07895
   A18        2.16371  -0.00105   0.00000  -0.00346  -0.00342   2.16029
   A19        1.90638  -0.00052   0.00000  -0.00761  -0.00835   1.89803
   A20        1.87818  -0.00148   0.00000  -0.01166  -0.01232   1.86586
   A21        1.90677  -0.00733   0.00000  -0.04989  -0.05078   1.85599
   A22        2.06905   0.00710   0.00000   0.07049   0.07054   2.13959
   A23        1.85556   0.00028   0.00000  -0.00689  -0.00768   1.84788
   A24        1.84282   0.00077   0.00000  -0.00370  -0.00453   1.83829
   A25        1.97099  -0.00033   0.00000   0.00277   0.00269   1.97368
   A26        1.94654   0.00070   0.00000   0.00913   0.00904   1.95559
   A27        1.92975   0.00075   0.00000   0.01275   0.01261   1.94236
   A28        2.09129  -0.00017   0.00000  -0.00067  -0.00079   2.09050
   A29        2.11274  -0.00123   0.00000  -0.00777  -0.00791   2.10483
   A30        2.07912   0.00139   0.00000   0.00819   0.00804   2.08716
   A31        2.12115  -0.00018   0.00000  -0.00045  -0.00047   2.12068
   A32        2.08643   0.00006   0.00000  -0.00016  -0.00022   2.08620
   A33        2.07530   0.00011   0.00000   0.00018   0.00011   2.07541
   A34        2.10790  -0.00024   0.00000  -0.00111  -0.00120   2.10670
   A35        2.07084   0.00016   0.00000   0.00055   0.00044   2.07128
   A36        2.10419   0.00007   0.00000  -0.00001  -0.00012   2.10407
   A37        2.07580   0.00005   0.00000  -0.00022  -0.00027   2.07552
   A38        2.06762  -0.00294   0.00000  -0.01130  -0.01129   2.05633
   A39        2.13941   0.00290   0.00000   0.01172   0.01173   2.15115
   A40        1.96790  -0.00035   0.00000   0.00898   0.00853   1.97644
   A41        2.00853   0.00135   0.00000   0.01861   0.01829   2.02682
   A42        1.90432   0.00028   0.00000   0.01169   0.01130   1.91562
   A43        1.94427  -0.00098   0.00000  -0.00684  -0.00684   1.93743
   A44        1.90481  -0.00034   0.00000  -0.00155  -0.00156   1.90325
   A45        1.93187   0.00095   0.00000   0.00615   0.00615   1.93801
   A46        1.89561   0.00053   0.00000   0.00249   0.00248   1.89809
   A47        1.89008  -0.00018   0.00000  -0.00207  -0.00206   1.88801
   A48        1.89626   0.00003   0.00000   0.00198   0.00197   1.89824
   A49        1.92499  -0.00098   0.00000  -0.00648  -0.00649   1.91850
   A50        1.96667   0.00041   0.00000   0.00319   0.00319   1.96986
   A51        1.88843   0.00008   0.00000   0.00035   0.00034   1.88877
   A52        1.90239   0.00038   0.00000   0.00257   0.00257   1.90496
   A53        1.89571   0.00014   0.00000  -0.00061  -0.00062   1.89509
   A54        1.88399  -0.00002   0.00000   0.00100   0.00100   1.88499
    D1        0.04360   0.00037   0.00000   0.01630   0.01630   0.05990
    D2       -3.07712   0.00061   0.00000   0.02592   0.02589  -3.05123
    D3       -3.13608   0.00023   0.00000   0.00855   0.00854  -3.12754
    D4        0.02639   0.00047   0.00000   0.01817   0.01812   0.04451
    D5       -0.05390  -0.00003   0.00000  -0.00111  -0.00113  -0.05503
    D6        3.05973   0.00005   0.00000   0.00279   0.00278   3.06251
    D7        3.12524   0.00014   0.00000   0.00664   0.00666   3.13191
    D8       -0.04431   0.00023   0.00000   0.01055   0.01057  -0.03374
    D9       -3.02703   0.00046   0.00000   0.02045   0.02047  -3.00656
   D10        0.08655   0.00068   0.00000   0.02846   0.02842   0.11497
   D11        0.07634   0.00032   0.00000   0.01267   0.01267   0.08901
   D12       -3.09326   0.00054   0.00000   0.02067   0.02062  -3.07265
   D13       -0.00517  -0.00037   0.00000  -0.01563  -0.01561  -0.02078
   D14       -3.13465  -0.00010   0.00000  -0.00328  -0.00326  -3.13791
   D15        3.11545  -0.00065   0.00000  -0.02550  -0.02554   3.08991
   D16       -0.01402  -0.00038   0.00000  -0.01315  -0.01319  -0.02721
   D17       -0.02085  -0.00003   0.00000  -0.00080  -0.00082  -0.02167
   D18        3.13571   0.00019   0.00000   0.00919   0.00926  -3.13821
   D19        3.10876  -0.00030   0.00000  -0.01304  -0.01309   3.09566
   D20       -0.01786  -0.00008   0.00000  -0.00305  -0.00301  -0.02087
   D21        0.00807   0.00043   0.00000   0.01667   0.01667   0.02474
   D22       -3.10234   0.00063   0.00000   0.02873   0.02869  -3.07365
   D23        3.13467   0.00025   0.00000   0.00691   0.00698  -3.14153
   D24        0.02427   0.00045   0.00000   0.01896   0.01900   0.04327
   D25        0.02937  -0.00041   0.00000  -0.01546  -0.01546   0.01391
   D26       -3.08278  -0.00052   0.00000  -0.01963  -0.01962  -3.10240
   D27        3.13827  -0.00063   0.00000  -0.02815  -0.02814   3.11012
   D28        0.02612  -0.00075   0.00000  -0.03232  -0.03231  -0.00619
   D29       -2.34320  -0.00436   0.00000  -0.08096  -0.08071  -2.42390
   D30       -0.07565   0.00325   0.00000  -0.00502  -0.00533  -0.08099
   D31        1.91699  -0.00032   0.00000  -0.04067  -0.04063   1.87636
   D32        0.82906  -0.00413   0.00000  -0.06899  -0.06871   0.76035
   D33        3.09661   0.00347   0.00000   0.00696   0.00666   3.10327
   D34       -1.19393  -0.00009   0.00000  -0.02869  -0.02864  -1.22257
   D35       -0.01411  -0.00055   0.00000  -0.02331  -0.02332  -0.03743
   D36        3.11819  -0.00135   0.00000  -0.05454  -0.05441   3.06378
   D37        3.09742  -0.00041   0.00000  -0.01898  -0.01901   3.07840
   D38       -0.05347  -0.00121   0.00000  -0.05021  -0.05010  -0.10357
   D39        1.13439   0.00059   0.00000   0.00292   0.00300   1.13739
   D40       -1.05135  -0.00071   0.00000  -0.02358  -0.02356  -1.07491
   D41       -0.92081   0.00482   0.00000   0.04133   0.04112  -0.87969
   D42       -3.10656   0.00352   0.00000   0.01483   0.01456  -3.09200
   D43       -3.13336  -0.00421   0.00000  -0.03626  -0.03604   3.11378
   D44        0.96408  -0.00550   0.00000  -0.06276  -0.06260   0.90147
   D45        0.04139   0.00029   0.00000   0.01296   0.01295   0.05433
   D46       -3.12733  -0.00014   0.00000  -0.00596  -0.00601  -3.13334
   D47       -3.09109   0.00109   0.00000   0.04367   0.04380  -3.04729
   D48        0.02338   0.00066   0.00000   0.02475   0.02485   0.04823
   D49       -0.00835   0.00026   0.00000   0.01100   0.01101   0.00265
   D50        3.10891  -0.00035   0.00000  -0.01564  -0.01566   3.09325
   D51       -3.12299   0.00068   0.00000   0.02981   0.02985  -3.09314
   D52       -0.00572   0.00008   0.00000   0.00317   0.00318  -0.00254
   D53       -0.05063  -0.00055   0.00000  -0.02346  -0.02347  -0.07410
   D54        3.12019  -0.00067   0.00000  -0.03141  -0.03147   3.08872
   D55        3.11576   0.00007   0.00000   0.00368   0.00370   3.11945
   D56        0.00339  -0.00006   0.00000  -0.00427  -0.00430  -0.00092
   D57        1.24724   0.00066   0.00000   0.04800   0.04794   1.29518
   D58       -2.83627   0.00190   0.00000   0.08828   0.08833  -2.74794
   D59       -1.92344   0.00083   0.00000   0.05609   0.05603  -1.86741
   D60        0.27623   0.00208   0.00000   0.09637   0.09642   0.37265
   D61       -0.84389   0.00100   0.00000   0.02957   0.02957  -0.81432
   D62       -2.93690   0.00118   0.00000   0.03176   0.03175  -2.90514
   D63        1.26016   0.00077   0.00000   0.02653   0.02653   1.28668
   D64       -3.09852  -0.00076   0.00000  -0.01210  -0.01209  -3.11061
   D65        1.09166  -0.00059   0.00000  -0.00991  -0.00991   1.08175
   D66       -0.99447  -0.00100   0.00000  -0.01513  -0.01514  -1.00961
   D67        0.92222  -0.00033   0.00000  -0.02025  -0.02034   0.90189
   D68       -1.20805  -0.00040   0.00000  -0.02109  -0.02117  -1.22922
   D69        2.99350  -0.00068   0.00000  -0.02452  -0.02460   2.96890
   D70       -3.12896   0.00052   0.00000   0.01704   0.01712  -3.11184
   D71        1.02395   0.00045   0.00000   0.01620   0.01628   1.04024
   D72       -1.05769   0.00017   0.00000   0.01277   0.01285  -1.04483
         Item               Value     Threshold  Converged?
 Maximum Force            0.012542     0.000450     NO 
 RMS     Force            0.002149     0.000300     NO 
 Maximum Displacement     0.269475     0.001800     NO 
 RMS     Displacement     0.068210     0.001200     NO 
 Predicted change in Energy=-2.308071D-03
 GradGradGradGradGradGradGradGradGradGradGradGradGradGradGradGradGradGrad

                          Input orientation:                          
 ---------------------------------------------------------------------
 Center     Atomic      Atomic             Coordinates (Angstroms)
 Number     Number       Type             X           Y           Z
 ---------------------------------------------------------------------
      1          6           0       -1.578122    1.202167   -1.229851
      2          6           0       -2.682216    1.336717   -2.112566
      3          6           0       -2.738877    0.645605   -3.296665
      4          6           0       -1.673742   -0.202550   -3.671915
      5          6           0       -0.574380   -0.309216   -2.857341
      6          6           0       -0.470364    0.387772   -1.613351
      7         16           0        0.765897   -1.322486   -3.469508
      8          8           0        1.294673   -2.115303   -2.367474
      9          8           0        0.309720   -1.919529   -4.717345
     10          7           0        1.983989   -0.275664   -3.902449
     11          1           0        2.375023    0.231163   -3.110630
     12          1           0        1.695528    0.361181   -4.643169
     13          6           0        0.673527    0.333894   -0.770174
     14          6           0        0.715336    1.093984    0.369879
     15          6           0       -0.382827    1.888290    0.768252
     16          6           0       -1.539173    1.919357    0.016584
     17          7           0       -2.694858    2.647325    0.397584
     18          6           0       -3.792855    1.789772    0.862606
     19          6           0       -2.485218    3.733748    1.342549
     20          1           0       -3.477917    2.024796   -1.846968
     21          1           0       -3.588886    0.763103   -3.960983
     22          1           0       -1.701384   -0.753637   -4.606179
     23          1           0        1.497743   -0.330804   -1.000547
     24          1           0        1.594117    1.055618    1.006901
     25          1           0       -0.317368    2.435699    1.701265
     26          1           0       -3.946971    0.950128    0.184615
     27          1           0       -4.713033    2.380068    0.906304
     28          1           0       -3.582176    1.386702    1.866782
     29          1           0       -1.689191    4.390529    0.984058
     30          1           0       -2.231972    3.377889    2.355483
     31          1           0       -3.410562    4.312160    1.409148
 ---------------------------------------------------------------------
                    Distance matrix (angstroms):
                    1          2          3          4          5
     1  C    0.000000
     2  C    1.419969   0.000000
     3  C    2.434920   1.372202   0.000000
     4  C    2.818874   2.412039   1.412336   0.000000
     5  C    2.437314   2.776105   2.406188   1.372409   0.000000
     6  C    1.427389   2.458048   2.836579   2.456478   1.429728
     7  S    4.109058   4.560935   4.023269   2.692036   1.788241
     8  O    4.533513   5.272292   4.975494   3.764529   2.644859
     9  O    5.046934   5.132221   4.229916   2.824015   2.614260
    10  N    4.692057   5.251373   4.849864   3.665718   2.763807
    11  H    4.484142   5.272006   5.134038   4.110431   3.009176
    12  H    4.803621   5.149782   4.643050   3.551493   2.964977
    13  C    2.456649   3.750824   4.257326   3.770616   2.515378
    14  C    2.798355   4.214832   5.057290   4.870811   3.747971
    15  C    2.427326   3.727001   4.859917   5.074757   4.243895
    16  C    1.438568   2.485819   3.746913   4.257420   3.762553
    17  N    2.446248   2.831732   4.201940   5.072010   4.881813
    18  C    3.103014   3.207869   4.440667   5.387195   5.348115
    19  C    3.721420   4.209796   5.578824   6.426336   6.134813
    20  H    2.160271   1.084958   2.133066   3.398021   3.859921
    21  H    3.419800   2.137225   1.085190   2.164214   3.384545
    22  H    3.903838   3.398488   2.179242   1.085039   2.127460
    23  H    3.444346   4.635651   4.916755   4.148611   2.782416
    24  H    3.884281   5.300671   6.120755   5.844075   4.636541
    25  H    3.420898   4.620126   5.835019   6.137684   5.327428
    26  H    2.770502   2.650678   3.697504   4.622668   4.713153
    27  H    3.972188   3.785020   4.956875   6.071845   6.206910
    28  H    3.693159   4.080151   5.284086   6.070009   5.851522
    29  H    3.883218   4.461048   5.783675   6.540237   6.171446
    30  H    4.244515   4.932805   6.298342   7.032830   6.596658
    31  H    4.471489   4.667571   6.003288   7.015437   6.899563
                    6          7          8          9         10
     6  C    0.000000
     7  S    2.810452   0.000000
     8  O    3.154273   1.456929   0.000000
     9  O    3.945497   1.456591   2.555456   0.000000
    10  N    3.421106   1.663437   2.493105   2.483853   0.000000
    11  H    3.219099   2.265371   2.687999   3.387106   1.018213
    12  H    3.724458   2.253092   3.387099   2.669757   1.018552
    13  C    1.422089   3.168364   2.989273   4.559653   3.449640
    14  C    2.416159   4.536825   4.257729   5.926689   4.662425
    15  C    2.816247   5.439417   5.354955   6.713485   5.665683
    16  C    2.478869   5.289208   5.476576   6.369107   5.708730
    17  N    3.754706   6.533806   6.800333   7.486397   6.994695
[...]
 97,0.00003965,-0.00000490,-0.00005225,-0.00005313,-0.00002757,-0.00004
 803,0.00002428,-0.00025299,-0.00017244,-0.00020840,0.00079617,0.001401
 79,-0.00017662,0.02030078,0.15090071,0.27974865,-0.00066115,-0.0000771
 1,0.00066747,-0.00006914,-0.00013065,0.00088937,-0.00002087,0.00008556
 ,0.00008524,0.00005045,-0.00003624,-0.00000764,0.00002484,-0.00008312,
 -0.00004498,-0.00015183,0.00015374,0.00000372,-0.00025510,0.00014893,0
 .00015408,0.00007669,-0.00006406,-0.00000912,0.00004302,-0.00006692,-0
 .00009813,0.00011743,0.00000295,-0.00005868,-0.00003119,-0.00000033,0.
 00000827,-0.00001840,-0.00000032,0.00002262,0.00000149,0.00002404,0.00
 006773,-0.00002521,-0.00014744,-0.00000400,-0.00025978,0.00025895,-0.0
 0002744,0.00071331,-0.00162170,-0.00175842,-0.00652496,-0.02255109,-0.
 01656495,-0.05380839,-0.02197636,-0.01845887,-0.00465697,-0.00160980,0
 .00250860,0.00023648,-0.00007017,0.00002458,-0.00000346,-0.00001752,-0
 .00006299,0.00000515,0.00000615,-0.00000495,0.00002376,0.00001755,0.00
 000464,-0.00000688,0.00000314,0.00001201,0.00012057,-0.00001801,0.0000
 4223,0.05923467,0.00073077,0.00017215,-0.00073159,-0.00009529,0.000869
 65,-0.00055234,0.00020705,0.00007943,0.00019548,0.00016899,-0.00018938
 ,-0.00000312,0.00003824,-0.00019370,-0.00022632,-0.00067610,0.00046403
 ,0.00021433,-0.00024797,0.00017763,0.00002826,0.00007687,-0.00006741,0
 .00004998,0.00004978,-0.00004805,-0.00003544,0.00011197,0.00000194,-0.
 00002929,-0.00001247,-0.00000454,-0.00001203,-0.00001759,-0.00000365,0
 .00001845,0.00020381,0.00011626,0.00041239,0.00031076,-0.00038520,-0.0
 0027309,-0.00078376,0.00031067,-0.00008870,0.00200258,-0.00048618,-0.0
 0050474,-0.00339280,-0.01717985,-0.01112920,-0.02851667,-0.20995886,-0
 .13256389,-0.00352921,-0.00070236,0.00242137,-0.00001302,-0.00061768,0
 .00063031,-0.00000292,0.00002274,0.00001065,0.00002148,-0.00002735,0.0
 0000333,0.00002902,0.00000565,0.00001859,-0.00001726,0.00001303,0.0000
 0461,0.00005862,-0.00003598,0.00006789,0.03453469,0.22895814,0.0012478
 0,0.00052928,-0.00009656,0.00103022,0.00036586,-0.00210942,-0.00009443
 ,0.00020267,0.00010583,0.00026442,-0.00023027,0.00003067,-0.00018877,0
 .00004576,-0.00014947,-0.00047664,0.00027231,0.00019759,0.00021329,-0.
 00018522,-0.00008770,-0.00006963,0.00008746,-0.00004564,-0.00003163,0.
 00005000,0.00005035,-0.00007939,0.00001751,0.00002727,0.00001455,-0.00
 000056,-0.00000626,0.00001762,0.00000226,-0.00001299,0.00000497,0.0000
 4567,0.00014434,0.00016818,-0.00007878,-0.00007482,-0.00031842,-0.0001
 2938,-0.00031804,0.00064587,-0.00014820,0.00039478,0.00067121,0.011339
 84,0.00803132,-0.02422915,-0.14015981,-0.16457483,0.00135132,0.0010643
 4,-0.00021588,0.00068617,0.00081148,-0.00126402,-0.00000983,0.00000724
 ,-0.00000799,-0.00001505,-0.00000624,0.00001279,-0.00000748,-0.0000072
 3,0.00000501,0.00000508,0.00000067,-0.00001671,0.00001709,0.00001348,0
 .00002465,0.02087550,0.14611195,0.17645431,0.00010451,-0.00007292,-0.0
 0029792,-0.00013223,0.00002056,0.00013922,0.00005380,0.00003033,0.0000
 6358,0.00002161,-0.00000407,0.00005859,-0.00000670,-0.00000549,-0.0000
 0704,-0.00008148,0.00013927,-0.00007326,0.00012810,-0.00013751,-0.0001
 7848,-0.00003801,0.00007945,0.00004795,-0.00001855,0.00006920,0.000111
 28,-0.00007559,0.00000683,0.00005752,0.00004179,-0.00000184,-0.0000316
 7,0.00001612,0.00000554,-0.00002130,-0.00011691,0.00004217,0.00013030,
 0.00002539,0.00014930,-0.00041627,-0.00071784,0.00057776,0.00095102,-0
 .00294650,-0.00420520,-0.00165357,-0.02596551,0.00976880,0.00774050,-0
 .23025034,0.12413809,0.00370323,0.00014048,0.00222126,0.00050394,-0.00
 025153,0.00008119,0.00016719,0.00001041,0.00002245,0.00003358,0.000005
 07,-0.00000328,0.00000209,-0.00000166,-0.00002619,0.00001571,-0.000108
 53,0.00008310,0.00002434,-0.00003840,-0.00010833,-0.00001535,0.0060929
 9,-0.00266597,0.00030237,0.25834823,0.00000098,0.00008429,0.00003440,0
 .00008150,-0.00005700,0.00007116,0.00004769,0.00002102,0.00000482,-0.0
 0001968,-0.00002507,0.00000082,0.00001061,-0.00000300,-0.00001391,-0.0
 0012902,0.00012306,-0.00000500,-0.00010301,0.00005557,0.00009060,0.000
 03269,-0.00002016,-0.00002150,0.00001722,-0.00002884,-0.00005257,0.000
 05217,0.00000177,-0.00002907,-0.00001396,0.00000051,0.00000266,-0.0000
 0843,0.00000047,0.00001239,0.00002237,0.00003110,0.00008059,-0.0000222
 9,0.00011823,-0.00036986,-0.00074010,0.00086487,0.00037509,-0.00338992
 ,-0.00156100,-0.00037924,-0.02092894,0.01002971,0.00267410,0.13114942,
 -0.13856790,-0.00529131,-0.00166337,0.00156806,0.00063907,0.00022315,-
 0.00010246,-0.00018955,0.00000643,0.00000147,-0.00003084,0.00000135,0.
 00000119,0.00000188,-0.00000607,-0.00001405,0.00002194,-0.00007799,0.0
 0001542,0.00003719,-0.00005582,-0.00012762,0.00005307,0.01999761,-0.01
 191872,0.00180505,-0.13357085,0.14573688,0.00012469,0.00009507,-0.0000
 1881,0.00033445,-0.00019084,0.00007599,-0.00010014,0.00005145,-0.00003
 048,0.00000128,-0.00001183,0.00000104,-0.00000994,-0.00001053,-0.00000
 223,-0.00018865,0.00010057,-0.00003660,-0.00002829,0.00005429,0.000047
 88,0.00000644,-0.00002932,-0.00001420,0.00000125,-0.00002718,-0.000040
 83,0.00001692,-0.00000710,-0.00001666,-0.00001262,0.00000213,0.0000124
 6,-0.00000450,-0.00000157,0.00000696,0.00013920,0.00001967,0.00006503,
 0.00013704,-0.00016921,0.00014822,0.00055887,-0.00032277,-0.00040755,0
 .00194636,0.00152008,0.00122760,0.01306139,-0.00703440,-0.00259843,0.0
 0227684,-0.00272893,-0.05080614,-0.00072219,-0.00012839,0.00012674,0.0
 0000352,0.00004604,-0.00006072,0.00000482,-0.00001557,-0.00004112,-0.0
 0000937,0.00000449,0.00000052,-0.00000082,0.00000856,-0.00000218,0.000
 04874,-0.00006984,0.00000086,0.00006277,0.00013562,-0.00004387,0.01818
 789,-0.01068666,0.00038748,-0.01023872,0.00169758,0.05032943,-0.000012
 96,0.00126355,0.00060277,-0.00044056,0.00022022,-0.00017822,0.00002822
 ,0.00008614,0.00008100,0.00007833,-0.00003756,0.00003979,0.00000073,-0
 .00008214,-0.00007221,0.00049098,-0.00006910,0.00012768,-0.00009905,0.
 00004346,-0.00000242,0.00003140,-0.00001291,0.00002247,0.00002187,-0.0
 0000527,0.00000325,0.00003447,0.00000221,-0.00000294,-0.00000116,-0.00
 000211,-0.00001142,-0.00000209,0.00000031,0.00000292,-0.00035502,-0.00
 010347,-0.00025244,-0.00000674,0.00035820,0.00020130,0.00024081,-0.000
 01863,-0.00139422,0.00589906,-0.00421922,0.00068497,-0.00536339,-0.017
 01621,0.02926191,-0.06250157,0.02105170,-0.05048944,0.00126705,0.00196
 754,0.00354763,-0.00013712,-0.00018114,0.00018514,-0.00000111,0.000006
 41,0.00002899,0.00000809,-0.00000600,0.00000017,0.00000247,-0.00002098
 ,-0.00000786,0.00002207,-0.00001923,-0.00000400,-0.00011630,-0.0001964
 2,0.00004499,-0.00077826,0.00206711,-0.00278241,-0.00464420,0.00837781
 ,-0.02538282,0.06658911,0.00004515,0.00038537,0.00024040,-0.00029984,0
 .00028516,-0.00075806,0.00009509,0.00030503,0.00033048,0.00023820,-0.0
 0013141,0.00006569,-0.00002224,-0.00012333,-0.00021019,-0.00014785,0.0
 0018651,0.00000910,-0.00005300,-0.00002320,-0.00013523,0.00001202,0.00
 003603,0.00006721,0.00001576,0.00002777,0.00006734,0.00000024,0.000010
 18,0.00003218,0.00003187,-0.00000508,-0.00003507,0.00000621,0.00000119
 ,-0.00000832,-0.00025386,0.00017042,0.00022240,0.00022395,-0.00033762,
 -0.00002680,-0.00113861,0.00007660,-0.00002814,0.00334742,-0.00223791,
 -0.00139746,-0.00992590,-0.01238418,0.02012970,0.02206031,-0.08083183,
 0.07623512,0.00109568,0.00208034,0.00411671,0.00008570,-0.00036240,0.0
 0009906,-0.00000295,-0.00000355,0.00003260,0.00001295,-0.00001751,0.00
 000760,0.00003970,-0.00000156,-0.00002140,-0.00002491,0.00005140,-0.00
 002378,-0.00005614,0.00000768,-0.00002775,-0.00523540,0.01090950,-0.02
 253903,0.00462855,-0.00591942,0.01737100,-0.01476990,0.08753084,0.0003
 8239,-0.00069310,-0.00085051,0.00010770,0.00029143,0.00016052,0.000111
 44,-0.00006414,-0.00001275,-0.00006373,0.00000634,-0.00004592,0.000118
 11,-0.00009325,-0.00003039,-0.00028084,0.00010811,0.00005763,-0.000302
 41,0.00033066,0.00015397,0.00010437,-0.00016281,0.00002363,0.00005292,
 -0.00011941,-0.00012362,0.00014766,-0.00003816,-0.00006927,-0.00005624
 ,0.00000888,0.00002567,-0.00002912,-0.00000283,0.00003089,0.00036997,-
 0.00017116,-0.00001919,0.00003520,0.00016078,-0.00005414,0.00121481,-0
 .00028900,-0.00019079,-0.00305407,0.00169517,0.00141216,0.00996317,0.0
 0990568,-0.01198972,-0.05148071,0.07508639,-0.25448659,0.00005795,-0.0
 0262763,0.00238882,0.00013097,-0.00003023,0.00033859,-0.00000417,0.000
 00029,-0.00001307,0.00000877,-0.00000289,-0.00000567,-0.00000852,0.000
 00366,0.00002491,0.00007371,-0.00002727,0.00000398,0.00007157,0.000085
 93,0.00000628,-0.00559625,0.00783469,-0.01780211,-0.00050312,-0.001323
 41,0.00162126,0.04772622,-0.09192633,0.27871234,0.00025690,-0.00003737
 ,-0.00025539,0.00005388,0.00002717,-0.00004988,-0.00001455,0.00004644,
 -0.00001652,0.00003101,-0.00000956,0.00000912,-0.00000187,-0.00007841,
 -0.00004798,0.00007658,-0.00001859,0.00009292,-0.00012027,0.00003850,0
 .00011462,0.00003475,-0.00002848,-0.00002899,0.00002171,-0.00002197,-0
 .00006037,0.00005880,0.00001404,-0.00003383,-0.00001921,-0.00000327,0.
 00001505,-0.00000894,-0.00000684,0.00001220,0.00002512,-0.00007914,-0.
 00018664,-0.00016210,0.00021146,0.00017172,-0.00000573,0.00020998,0.00
 009255,0.00043496,0.00155247,-0.00000272,-0.00523263,-0.00271808,0.000
 30503,0.00073066,-0.00078050,-0.00148206,-0.20506037,-0.11836484,0.071
 35776,-0.00002237,-0.00005502,0.00009013,-0.00000475,-0.00000676,-0.00
 000456,-0.00000185,-0.00000763,0.00000132,-0.00000745,-0.00000110,0.00
 000408,0.00001756,-0.00001573,0.00000636,-0.00003657,0.00065674,-0.000
 21617,0.00005826,-0.00044311,0.00035326,0.00049796,-0.00000966,0.00000
 918,-0.00001072,-0.00003919,0.00019004,0.21974628,0.00000376,-0.000398
 77,-0.00064641,0.00006007,0.00013569,0.00019953,0.00011277,-0.00013700
 ,-0.00010819,-0.00016842,0.00009464,0.00002625,0.00010627,0.00001483,0
 .00010806,-0.00042386,0.00012050,-0.00013162,0.00002759,-0.00007050,-0
 .00004618,-0.00000630,0.00003864,0.00001269,-0.00000379,0.00003377,0.0
 0004158,-0.00001581,0.00001805,0.00001393,0.00001651,-0.00000542,-0.00
 001064,0.00000783,-0.00000189,-0.00001138,0.00016836,0.00012327,0.0004
 1557,0.00050197,-0.00007426,-0.00020400,0.00028046,0.00047178,-0.00016
 340,-0.00269813,0.00101081,0.00138274,-0.02043539,-0.01862754,0.006146
 55,0.00092321,-0.00392514,-0.00427925,-0.11239323,-0.13485300,0.051632
 25,0.00002892,-0.00003328,0.00008440,0.00000482,0.00000141,0.00001273,
 0.00000526,-0.00000267,-0.00000344,-0.00001087,-0.00000947,0.00004554,
 0.00000066,-0.00002239,-0.00000007,0.00012314,-0.00082868,0.00065486,-
 0.00147105,-0.00066693,0.00042168,-0.00020717,0.00038155,0.00001125,0.
 00027221,0.00025233,-0.00006676,0.12969357,0.15013458,-0.00018852,0.00
 020858,-0.00022445,0.00001112,-0.00000421,0.00002942,0.00002430,-0.000
 03288,-0.00004379,-0.00003678,0.00001263,-0.00002345,-0.00001231,0.000
 01583,0.00004641,-0.00006812,0.00003249,-0.00004967,0.00000912,-0.0000
 1817,0.00000795,-0.00000547,0.00000434,-0.00000888,-0.00000004,0.00000
 627,0.00000172,-0.00000165,0.00000900,-0.00000559,0.00000560,-0.000003
 41,0.00000316,0.00000338,-0.00000424,-0.00000183,0.00008610,0.00001832
 ,0.00010042,0.00006973,-0.00013831,-0.00027600,0.00040179,-0.00000730,
 0.00060316,-0.00085453,-0.00012889,0.00103666,-0.02053316,-0.01568810,
 0.00667180,0.00026152,-0.00304151,-0.00248960,0.07644433,0.05792992,-0
 .08540604,-0.00003203,-0.00002475,0.00004907,-0.00000435,-0.00000633,0
 .00000030,-0.00000161,-0.00000014,0.00000163,-0.00000205,-0.00001397,-
 0.00001894,-0.00000859,0.00000551,0.00000748,0.00003984,0.00003970,-0.
 00043825,-0.00092325,-0.00100088,0.00068062,0.00007272,0.00012081,-0.0
 0020457,-0.00011153,-0.00056087,0.00033352,-0.07679516,-0.05338573,0.0
 8902997,0.00006243,0.00014847,-0.00009090,-0.00000313,-0.00002419,-0.0
 0006228,-0.00002261,-0.00002588,-0.00003427,0.00000517,-0.00001941,-0.
 00001051,-0.00001303,-0.00004387,-0.00004618,0.00025852,-0.00006216,0.
 00012008,-0.00012528,0.00009682,0.00012734,0.00003886,-0.00005751,-0.0
 0003387,0.00002038,-0.00004295,-0.00006981,0.00006495,0.00000291,-0.00
 004161,-0.00002992,-0.00000170,0.00001944,-0.00001164,-0.00000564,0.00
 001391,0.00003163,-0.00019032,-0.00033987,-0.00002910,0.00053559,-0.00
 006407,0.00047690,-0.00064461,0.00050471,-0.00077653,0.00036844,0.0008
 7006,-0.00028439,-0.00386460,-0.00600225,0.00103132,0.00179692,-0.0024
 7187,-0.06300400,0.01786533,-0.04545431,0.00004235,0.00000565,0.000016
 49,0.00000161,0.00000825,-0.00001509,-0.00000088,-0.00000260,-0.000000
 48,-0.00004841,-0.00005134,0.00002507,0.00000031,-0.00004487,0.0000304
 7,-0.00163454,0.00074231,0.00105196,0.00000629,-0.00012154,0.00036957,
 -0.00019267,0.00027873,-0.00004634,0.00013353,-0.00020087,0.00059299,0
 .00607735,-0.00774185,0.02298643,0.06324156,0.00005134,-0.00095108,-0.
 00035456,0.00006327,0.00002478,-0.00007767,0.00014306,-0.00015032,-0.0
 0004481,-0.00010521,0.00001156,-0.00006161,0.00010541,0.00001121,0.000
 04475,-0.00038627,-0.00003633,-0.00020420,-0.00006202,-0.00001217,0.00
 002250,0.00001341,-0.00000168,0.00000363,0.00001661,-0.00000674,-0.000
 02031,0.00002237,0.00001877,-0.00001005,0.00000225,-0.00000639,0.00000
 341,-0.00000094,-0.00000665,0.00000125,0.00017458,0.00013758,0.0003210
 9,-0.00009374,-0.00059666,-0.00014807,0.00052549,0.00058033,0.00133198
 ,-0.00240647,0.00201986,-0.00050266,-0.00895425,0.00451929,-0.03078984
 ,0.00207596,0.00382513,-0.00433244,0.01664621,-0.08192021,0.07822663,0
 .00017896,-0.00004777,0.00008306,-0.00000331,-0.00000253,-0.00001657,0
 .00000986,-0.00000232,-0.00000403,0.00005148,0.00004791,-0.00004735,0.
 00000551,0.00000920,0.00000607,0.00147392,-0.00026534,-0.00105334,0.00
 016517,-0.00002973,0.00025202,-0.00009350,-0.00047832,0.00041827,0.001
 12193,0.00022766,0.00189765,0.00558382,-0.00583701,0.01584892,-0.01901
 393,0.08488499,0.00059290,-0.00097383,-0.00057068,-0.00001578,0.000110
 23,0.00012506,0.00013784,-0.00019353,-0.00005018,-0.00011007,0.0000302
 2,-0.00003598,0.00018301,-0.00010225,-0.00003288,-0.00018845,-0.000039
 31,-0.00003601,-0.00033603,0.00023435,0.00015879,0.00011299,-0.0001117
 9,0.00001691,0.00006435,-0.00009481,-0.00011870,0.00015075,-0.00001161
 ,-0.00006432,-0.00005135,0.00000719,0.00001684,-0.00002749,-0.00000228
 ,0.00002932,0.00012030,-0.00000191,-0.00008063,0.00028745,0.00046653,0
 .00058127,0.00061254,-0.00040997,-0.00078627,-0.00535889,0.00311280,0.
 00135724,-0.00585782,-0.00961251,-0.02987396,0.00297360,0.00179698,0.0
 0080153,-0.04445995,0.07930101,-0.24886996,0.00025658,0.00007378,0.000
 28062,0.00000150,0.00000690,-0.00001845,0.00001545,-0.00000444,-0.0000
 0828,-0.00001520,0.00001212,0.00009232,0.00007960,-0.00007875,-0.00000
 642,0.00096014,-0.00011313,0.00050243,0.00003318,-0.00037760,0.0004058
 6,-0.00030929,-0.00007548,-0.00010845,-0.00137819,-0.00131697,0.000578
 96,-0.00269222,0.00448998,-0.00882765,0.05415133,-0.07733823,0.2833407
 7,0.00034381,-0.00011766,-0.00049625,0.00009269,0.00001242,0.00019744,
 0.00001891,-0.00005810,-0.00004158,-0.00007207,0.00005974,0.00003722,0
 .00004987,0.00002370,0.00008262,-0.00031434,0.00009296,-0.00016883,0.0
 0015195,-0.00011942,-0.00015144,-0.00004354,0.00006317,0.00003565,-0.0
 0002690,0.00005432,0.00008761,-0.00007981,-0.00000047,0.00005011,0.000
 03367,-0.00000148,-0.00002051,0.00001598,0.00000462,-0.00002024,0.0000
 4438,0.00011612,0.00031521,0.00041161,-0.00002737,-0.00009052,-0.00022
 454,0.00037037,-0.00045703,0.00030306,-0.00091850,-0.00116375,0.006153
 45,-0.00472729,0.00177806,0.00118406,-0.00161444,-0.00045816,-0.244285
 62,0.12547868,0.00668953,-0.00003201,0.00004696,-0.00002636,0.00000646
 ,0.00000299,0.00001351,0.00000187,0.00000245,-0.00000309,-0.00000601,-
 0.00000839,0.00003815,-0.00000853,0.00001526,-0.00001559,-0.00002418,-
 0.00004137,0.00060565,0.00046618,-0.00007605,0.00006437,0.00010018,0.0
 0043937,-0.00017727,-0.00037794,0.00023186,-0.00008080,-0.01741241,0.0
 1323844,-0.00083682,-0.00531702,0.00268902,0.00006724,0.25884679,0.000
 89902,-0.00051106,-0.00017946,0.00014727,-0.00005144,0.00020830,-0.000
 00776,-0.00012224,-0.00013515,-0.00013005,0.00004036,-0.00003461,0.000
 11764,-0.00000564,0.00008103,-0.00010181,0.00005206,-0.00038502,-0.000
 11167,0.00010432,0.00008979,0.00003201,-0.00005443,-0.00001865,0.00001
 829,-0.00005608,-0.00007956,0.00006311,-0.00000068,-0.00003516,-0.0000
 2565,-0.00000022,0.00001624,-0.00001108,-0.00000450,0.00001386,0.00012
 685,-0.00005398,0.00013607,0.00016357,0.00002185,-0.00010983,-0.000224
 88,0.00067205,-0.00046099,-0.00303992,-0.00318147,-0.00104284,0.021962
 94,-0.01948961,-0.00860587,0.00232413,0.00039406,-0.00003188,0.1194513
 4,-0.12715023,-0.00162077,0.00003017,0.00003943,-0.00004204,-0.0000024
 6,-0.00000774,-0.00002587,-0.00000295,0.00000831,-0.00000568,-0.000008
 31,0.00000193,0.00002180,0.00004627,-0.00001335,-0.00001260,-0.0002243
 6,0.00006964,0.00036421,-0.00022120,0.00041474,0.00003819,-0.00096153,
 -0.00021160,-0.00010193,-0.00007851,-0.00016501,0.00022270,-0.01530894
 ,0.01266209,-0.00019260,0.01031039,-0.00596703,0.00121631,-0.13523191,
 0.14256544,0.00081849,-0.00047691,0.00020134,0.00012046,-0.00004862,0.
 00009431,-0.00008148,0.00002384,-0.00006032,-0.00000587,-0.00000680,0.
 00002372,0.00007147,-0.00003471,-0.00003572,0.00019147,0.00001711,-0.0
 0016278,-0.00009091,0.00008227,0.00007401,0.00002479,-0.00003756,-0.00
 001865,0.00001354,-0.00004284,-0.00006680,0.00005487,0.00000403,-0.000
 02809,-0.00002408,0.00000027,0.00001532,-0.00000852,-0.00000602,0.0000
 1163,-0.00001752,-0.00010411,-0.00023995,-0.00003342,0.00034642,0.0004
 2399,-0.00018700,-0.00048877,-0.00082908,-0.00215624,-0.00367877,-0.00
 127773,0.02191651,-0.01780560,-0.00639038,0.00081099,0.00046512,0.0002
 3778,0.00204373,0.00072930,-0.04767072,-0.00002725,-0.00004411,-0.0000
 1244,-0.00000136,-0.00000826,-0.00001893,-0.00000508,0.00000153,-0.000
 00260,-0.00001455,0.00001162,0.00004831,0.00003691,-0.00003365,-0.0000
 0044,0.00029088,0.00028122,0.00035973,0.00003254,0.00019260,-0.0001704
 4,-0.00037915,0.00005852,0.00038137,-0.00049107,-0.00001119,-0.0001794
 1,0.00904716,-0.00664252,-0.00058460,-0.02609617,0.01654456,0.00120091
 ,-0.00585415,0.01071200,0.05467664\\0.00000013,0.00000873,0.00000758,-
 0.00000425,-0.00000236,-0.00000565,-0.00000222,0.00000290,0.00000463,-
 0.00000050,-0.00000018,0.00000159,-0.00000277,-0.00000664,-0.00000588,
 0.00000704,-0.00000118,0.00000524,0.00000462,-0.00000170,0.00000234,-0
 .00000405,-0.00000273,0.00000299,-0.00000794,-0.00000023,-0.00000330,0
 .00000674,0.00000176,-0.00000712,-0.00000255,0.00000169,-0.00000285,-0
 .00000086,0.00000203,0.00000028,-0.00000829,-0.00000125,-0.00001103,-0
 .00000109,0.00000624,0.00000800,0.00000381,-0.00000467,0.00000017,0.00
 001435,-0.00001351,-0.00000505,-0.00001269,0.00000881,-0.00000781,-0.0
 0000205,-0.00000709,0.00000861,0.00000370,0.00000610,0.00000671,-0.000
 00036,-0.00000069,0.00000229,-0.00000164,-0.00000010,0.00000103,-0.000
 00066,-0.00000146,0.00000044,0.00000052,0.00000153,0.00000227,0.000001
 65,-0.00000014,-0.00000288,0.00000004,0.00000203,-0.00000037,0.0000010
 5,0.00000039,-0.00000125,0.00000223,0.00000113,0.00000142,0.00000264,-
 0.00000003,-0.00000014,0.00000125,-0.00000047,-0.00000135,0.00000074,0
 .00000115,-0.00000109,0.00000142,-0.00000005,0.00000016\\\@
 The archive entry for this job was punched.


 TIME IS IN FACT THE HERO OF THE PLOT. THE TIME
 WITH WHICH WE HAVE TO DEAL IS OF THE ORDER OF TWO
 BILLION YEARS...GIVEN SO MUCH TIME, THE "IMPOSSIBLE"
 BECOMES POSSIBLE, THE POSSIBLE PROBABLE, THE PROBABLE
 VIRTUALLY CERTAIN.  ONE HAS ONLY TO WAIT, TIME
 ITSELF PERFORMS THE MIRACLES.
 "ORIGIN OF LIFE" LECTURES, GEORGE WALD, 1954
 Job cpu time:       0 days  3 hours 41 minutes 15.1 seconds.
 Elapsed time:       0 days  0 hours 15 minutes 10.2 seconds.
 File lengths (MBytes):  RWF=    419 Int=      0 D2E=      0 Chk=     12 Scr=      1
 Normal termination of Gaussian 16 at Sat Jul  2 12:03:45 2022.
