 Entering Gaussian System, Link 0=g16
 AtFile(1): /home/561/yj5695/Basis/6-31pGd.gbs
 Initial command:
 /apps/gaussian/g16c01/g16/l1.exe "/jobfs/40763683.gadi-pbs/Gau-2973387.inp" -scrdir="/jobfs/40763683.gadi-pbs/"
 Entering Link 1 = /apps/gaussian/g16c01/g16/l1.exe PID=   2973388.
  
 Copyright (c) 1988-2019, Gaussian, Inc.  All Rights Reserved.
  
 This is part of the Gaussian(R) 16 program.  It is based on
 the Gaussian(R) 09 system (copyright 2009, Gaussian, Inc.),
 the Gaussian(R) 03 system (copyright 2003, Gaussian, Inc.),
 the Gaussian(R) 98 system (copyright 1998, Gaussian, Inc.),
 the Gaussian(R) 94 system (copyright 1995, Gaussian, Inc.),
 the Gaussian 92(TM) system (copyright 1992, Gaussian, Inc.),
 the Gaussian 90(TM) system (copyright 1990, Gaussian, Inc.),
 the Gaussian 88(TM) system (copyright 1988, Gaussian, Inc.),
 the Gaussian 86(TM) system (copyright 1986, Carnegie Mellon
 University), and the Gaussian 82(TM) system (copyright 1983,
 Carnegie Mellon University). Gaussian is a federally registered
 trademark of Gaussian, Inc.
  
 This software contains proprietary and confidential information,
 including trade secrets, belonging to Gaussian, Inc.
  
 This software is provided under written license and may be
 used, copied, transmitted, or stored only in accord with that
 written license.
  
 The following legend is applicable only to US Government
 contracts under FAR:
  
                    RESTRICTED RIGHTS LEGEND
  
 Use, reproduction and disclosure by the US Government is
 subject to restrictions as set forth in subparagraphs (a)
 and (c) of the Commercial Computer Software - Restricted
 Rights clause in FAR 52.227-19.
  
 Gaussian, Inc.
 340 Quinnipiac St., Bldg. 40, Wallingford CT 06492
  
  
 ---------------------------------------------------------------
 Warning -- This program may not be used in any manner that
 competes with the business of Gaussian, Inc. or will provide
 assistance to any competitor of Gaussian, Inc.  The licensee
 of this program is prohibited from giving any competitor of
 Gaussian, Inc. access to this program.  By using this program,
 the user acknowledges that Gaussian, Inc. is engaged in the
 business of creating and licensing software in the field of
 computational chemistry and represents and warrants to the
 licensee that it is not a competitor of Gaussian, Inc. and that
 it will not use this program in any manner prohibited above.
 ---------------------------------------------------------------
  

 Cite this work as:
 Gaussian 16, Revision C.01,
 M. J. Frisch, G. W. Trucks, H. B. Schlegel, G. E. Scuseria, 
 M. A. Robb, J. R. Cheeseman, G. Scalmani, V. Barone, 
 G. A. Petersson, H. Nakatsuji, X. Li, M. Caricato, A. V. Marenich, 
 J. Bloino, B. G. Janesko, R. Gomperts, B. Mennucci, H. P. Hratchian, 
 J. V. Ortiz, A. F. Izmaylov, J. L. Sonnenberg, D. Williams-Young, 
 F. Ding, F. Lipparini, F. Egidi, J. Goings, B. Peng, A. Petrone, 
 T. Henderson, D. Ranasinghe, V. G. Zakrzewski, J. Gao, N. Rega, 
 G. Zheng, W. Liang, M. Hada, M. Ehara, K. Toyota, R. Fukuda, 
 J. Hasegawa, M. Ishida, T. Nakajima, Y. Honda, O. Kitao, H. Nakai, 
 T. Vreven, K. Throssell, J. A. Montgomery, Jr., J. E. Peralta, 
 F. Ogliaro, M. J. Bearpark, J. J. Heyd, E. N. Brothers, K. N. Kudin, 
 V. N. Staroverov, T. A. Keith, R. Kobayashi, J. Normand, 
 K. Raghavachari, A. P. Rendell, J. C. Burant, S. S. Iyengar, 
 J. Tomasi, M. Cossi, J. M. Millam, M. Klene, C. Adamo, R. Cammi, 
 J. W. Ochterski, R. L. Martin, K. Morokuma, O. Farkas, 
 J. B. Foresman, and D. J. Fox, Gaussian, Inc., Wallingford CT, 2019.
 
 ******************************************
 Gaussian 16:  ES64L-G16RevC.01  3-Jul-2019
                20-May-2022 
 ******************************************
 %nproc=16
 Will use up to   16 processors via shared memory.
 %mem=20gb
 --------------------------------------------------
 #M062X/gen 6D INT(grid=ultrafine) OPT Freq=noraman
 --------------------------------------------------
 1/18=20,19=15,26=4,38=1/1,3;
 2/9=110,12=2,17=6,18=5,40=1/2;
 3/5=7,8=2,11=2,25=1,30=1,71=1,74=-55,75=-5/1,2,3;
 4//1;
 5/5=2,38=5/2;
 6/7=2,8=2,9=2,10=2,28=1/1;
 7//1,2,3,16;
 1/18=20,19=15,26=4/3(2);
 2/9=110/2;
 99//99;
 2/9=110/2;
 3/5=7,6=1,8=2,11=2,25=1,30=1,71=1,74=-55,75=-5,82=7/1,2,3;
 4/5=5,16=3,69=1/1;
 5/5=2,38=5/2;
 7//1,2,3,16;
 1/18=20,19=15,26=4/3(-5);
 2/9=110/2;
 6/7=2,8=2,9=2,10=2,19=2,28=1/1;
 99/9=1/99;
 ------------
 HA.5.a1.freq
 ------------
 Symbolic Z-matrix:
 Charge =  0 Multiplicity = 1
 C                    -1.34587   0.71974  -0.82851 
 C                    -2.54294   0.77649  -1.53726 
 H                    -3.49688   0.72544  -1.02109 
 C                    -2.49281   0.90833  -2.92304 
 H                    -3.41969   0.95902  -3.48773 
 C                    -1.26934   0.98031  -3.59786 
 C                    -1.216     1.13708  -5.09288 
 C                    -0.08258   0.91473  -2.85385 
 H                     0.874     0.97087  -3.3671 
 C                    -0.10878   0.78344  -1.47052 
 H                     0.81463   0.73792  -0.90099 
 S                    -1.3939    0.49674   0.93023 
 O                    -0.15191   1.02868   1.4937 
 O                    -2.67862   0.99847   1.4208 
 N                    -1.38405  -1.12384   1.26433 
 H                    -0.52913  -1.56968   0.92444 
 H                    -0.56751   0.37723  -5.54037 
 H                    -2.21165   1.05132  -5.53496 
 H                    -2.20513  -1.59028   0.87261 
 H                    -0.80451   2.11641  -5.36089 
 

 GradGradGradGradGradGradGradGradGradGradGradGradGradGradGradGradGradGrad
 Berny optimization.
 Initialization pass.
                           ----------------------------
                           !    Initial Parameters    !
                           ! (Angstroms and Degrees)  !
 --------------------------                            --------------------------
 ! Name  Definition              Value          Derivative Info.                !
 --------------------------------------------------------------------------------
 ! R1    R(1,2)                  1.3923         estimate D2E/DX2                !
 ! R2    R(1,10)                 1.3952         estimate D2E/DX2                !
 ! R3    R(1,12)                 1.7735         estimate D2E/DX2                !
 ! R4    R(2,3)                  1.0858         estimate D2E/DX2                !
 ! R5    R(2,4)                  1.3929         estimate D2E/DX2                !
 ! R6    R(4,5)                  1.0865         estimate D2E/DX2                !
 ! R7    R(4,6)                  1.3991         estimate D2E/DX2                !
 ! R8    R(6,7)                  1.5042         estimate D2E/DX2                !
 ! R9    R(6,8)                  1.4022         estimate D2E/DX2                !
 ! R10   R(7,17)                 1.0946         estimate D2E/DX2                !
 ! R11   R(7,18)                 1.0927         estimate D2E/DX2                !
 ! R12   R(7,20)                 1.0955         estimate D2E/DX2                !
 ! R13   R(8,9)                  1.087          estimate D2E/DX2                !
 ! R14   R(8,10)                 1.3898         estimate D2E/DX2                !
 ! R15   R(10,11)                1.0859         estimate D2E/DX2                !
 ! R16   R(12,13)                1.4639         estimate D2E/DX2                !
 ! R17   R(12,14)                1.4639         estimate D2E/DX2                !
 ! R18   R(12,15)                1.6547         estimate D2E/DX2                !
 ! R19   R(15,16)                1.0223         estimate D2E/DX2                !
 ! R20   R(15,19)                1.0223         estimate D2E/DX2                !
 ! A1    A(2,1,10)             121.7516         estimate D2E/DX2                !
 ! A2    A(2,1,12)             119.1212         estimate D2E/DX2                !
 ! A3    A(10,1,12)            119.0831         estimate D2E/DX2                !
 ! A4    A(1,2,3)              120.7594         estimate D2E/DX2                !
 ! A5    A(1,2,4)              118.6424         estimate D2E/DX2                !
 ! A6    A(3,2,4)              120.5971         estimate D2E/DX2                !
 ! A7    A(2,4,5)              119.3904         estimate D2E/DX2                !
 ! A8    A(2,4,6)              121.0772         estimate D2E/DX2                !
 ! A9    A(5,4,6)              119.5322         estimate D2E/DX2                !
 ! A10   A(4,6,7)              121.0487         estimate D2E/DX2                !
 ! A11   A(4,6,8)              118.8017         estimate D2E/DX2                !
 ! A12   A(7,6,8)              120.1475         estimate D2E/DX2                !
 ! A13   A(6,7,17)             110.7921         estimate D2E/DX2                !
 ! A14   A(6,7,18)             111.1987         estimate D2E/DX2                !
 ! A15   A(6,7,20)             110.465          estimate D2E/DX2                !
 ! A16   A(17,7,18)            108.659          estimate D2E/DX2                !
 ! A17   A(17,7,20)            107.338          estimate D2E/DX2                !
 ! A18   A(18,7,20)            108.2651         estimate D2E/DX2                !
 ! A19   A(6,8,9)              119.4615         estimate D2E/DX2                !
 ! A20   A(6,8,10)             121.1036         estimate D2E/DX2                !
 ! A21   A(9,8,10)             119.4346         estimate D2E/DX2                !
 ! A22   A(1,10,8)             118.6223         estimate D2E/DX2                !
 ! A23   A(1,10,11)            120.7144         estimate D2E/DX2                !
 ! A24   A(8,10,11)            120.6621         estimate D2E/DX2                !
 ! A25   A(1,12,13)            108.2431         estimate D2E/DX2                !
 ! A26   A(1,12,14)            108.2406         estimate D2E/DX2                !
 ! A27   A(1,12,15)            108.8581         estimate D2E/DX2                !
 ! A28   A(13,12,14)           119.4096         estimate D2E/DX2                !
 ! A29   A(13,12,15)           105.8496         estimate D2E/DX2                !
 ! A30   A(14,12,15)           105.8567         estimate D2E/DX2                !
 ! A31   A(12,15,16)           111.4045         estimate D2E/DX2                !
 ! A32   A(12,15,19)           111.3886         estimate D2E/DX2                !
 ! A33   A(16,15,19)           110.1977         estimate D2E/DX2                !
 ! D1    D(10,1,2,3)           179.9963         estimate D2E/DX2                !
 ! D2    D(10,1,2,4)            -0.3835         estimate D2E/DX2                !
 ! D3    D(12,1,2,3)             2.435          estimate D2E/DX2                !
 ! D4    D(12,1,2,4)          -177.9448         estimate D2E/DX2                !
 ! D5    D(2,1,10,8)             0.3749         estimate D2E/DX2                !
 ! D6    D(2,1,10,11)          179.982          estimate D2E/DX2                !
 ! D7    D(12,1,10,8)          177.9371         estimate D2E/DX2                !
 ! D8    D(12,1,10,11)          -2.4558         estimate D2E/DX2                !
 ! D9    D(2,1,12,13)         -156.0454         estimate D2E/DX2                !
 ! D10   D(2,1,12,14)          -25.2753         estimate D2E/DX2                !
 ! D11   D(2,1,12,15)           89.3431         estimate D2E/DX2                !
 ! D12   D(10,1,12,13)          26.3275         estimate D2E/DX2                !
 ! D13   D(10,1,12,14)         157.0975         estimate D2E/DX2                !
 ! D14   D(10,1,12,15)         -88.284          estimate D2E/DX2                !
 ! D15   D(1,2,4,5)           -179.6849         estimate D2E/DX2                !
 ! D16   D(1,2,4,6)              0.1282         estimate D2E/DX2                !
 ! D17   D(3,2,4,5)             -0.0641         estimate D2E/DX2                !
 ! D18   D(3,2,4,6)            179.749          estimate D2E/DX2                !
 ! D19   D(2,4,6,7)           -179.3562         estimate D2E/DX2                !
 ! D20   D(2,4,6,8)              0.1236         estimate D2E/DX2                !
 ! D21   D(5,4,6,7)              0.4566         estimate D2E/DX2                !
 ! D22   D(5,4,6,8)            179.9364         estimate D2E/DX2                !
 ! D23   D(4,6,7,17)          -128.3053         estimate D2E/DX2                !
 ! D24   D(4,6,7,18)            -7.3527         estimate D2E/DX2                !
 ! D25   D(4,6,7,20)           112.8823         estimate D2E/DX2                !
 ! D26   D(8,6,7,17)            52.2218         estimate D2E/DX2                !
 ! D27   D(8,6,7,18)           173.1745         estimate D2E/DX2                !
 ! D28   D(8,6,7,20)           -66.5906         estimate D2E/DX2                !
 ! D29   D(4,6,8,9)           -179.9245         estimate D2E/DX2                !
 ! D30   D(4,6,8,10)            -0.1325         estimate D2E/DX2                !
 ! D31   D(7,6,8,9)             -0.4398         estimate D2E/DX2                !
 ! D32   D(7,6,8,10)           179.3522         estimate D2E/DX2                !
 ! D33   D(6,8,10,1)            -0.1106         estimate D2E/DX2                !
 ! D34   D(6,8,10,11)         -179.7179         estimate D2E/DX2                !
 ! D35   D(9,8,10,1)           179.6814         estimate D2E/DX2                !
 ! D36   D(9,8,10,11)            0.0741         estimate D2E/DX2                !
 ! D37   D(1,12,15,16)          61.8638         estimate D2E/DX2                !
 ! D38   D(1,12,15,19)         -61.6265         estimate D2E/DX2                !
 ! D39   D(13,12,15,16)        -54.2944         estimate D2E/DX2                !
 ! D40   D(13,12,15,19)       -177.7848         estimate D2E/DX2                !
 ! D41   D(14,12,15,16)        178.0228         estimate D2E/DX2                !
 ! D42   D(14,12,15,19)         54.5324         estimate D2E/DX2                !
 --------------------------------------------------------------------------------
 Trust Radius=3.00D-01 FncErr=1.00D-07 GrdErr=1.00D-06 EigMax=2.50D+02 EigMin=1.00D-04
 Number of steps in this run=    105 maximum allowed number of steps=    120.
 GradGradGradGradGradGradGradGradGradGradGradGradGradGradGradGradGradGrad

                          Input orientation:                          
 ---------------------------------------------------------------------
 Center     Atomic      Atomic             Coordinates (Angstroms)
 Number     Number       Type             X           Y           Z
 ---------------------------------------------------------------------
      1          6           0       -1.345869    0.719737   -0.828511
      2          6           0       -2.542943    0.776493   -1.537261
      3          1           0       -3.496877    0.725435   -1.021088
      4          6           0       -2.492808    0.908334   -2.923043
      5          1           0       -3.419687    0.959018   -3.487732
      6          6           0       -1.269337    0.980309   -3.597861
      7          6           0       -1.215999    1.137083   -5.092885
      8          6           0       -0.082580    0.914731   -2.853853
      9          1           0        0.873995    0.970868   -3.367097
     10          6           0       -0.108778    0.783435   -1.470515
     11          1           0        0.814634    0.737919   -0.900994
     12         16           0       -1.393896    0.496738    0.930228
     13          8           0       -0.151907    1.028678    1.493703
     14          8           0       -2.678622    0.998466    1.420803
     15          7           0       -1.384050   -1.123843    1.264333
     16          1           0       -0.529127   -1.569683    0.924437
     17          1           0       -0.567508    0.377229   -5.540367
     18          1           0       -2.211647    1.051322   -5.534958
     19          1           0       -2.205131   -1.590277    0.872614
     20          1           0       -0.804511    2.116408   -5.360893
 ---------------------------------------------------------------------
                    Distance matrix (angstroms):
                    1          2          3          4          5
     1  C    0.000000
     2  C    1.392312   0.000000
     3  H    2.159619   1.085832   0.000000
     4  C    2.395434   1.392942   2.158481   0.000000
     5  H    3.380744   2.146237   2.478881   1.086530   0.000000
     6  C    2.782634   2.430984   3.415648   1.399086   2.153274
     7  C    4.286715   3.812252   4.685231   2.528000   2.732117
     8  C    2.394981   2.793906   3.879727   2.411229   3.397064
     9  H    3.381609   3.880921   4.966741   3.396536   4.295393
    10  C    1.395214   2.435090   3.418269   2.794465   3.880994
    11  H    2.161795   3.417550   4.313201   3.880322   4.966847
    12  S    1.773471   2.736252   2.877927   4.027992   4.882203
    13  O    2.629385   3.868772   4.195826   5.000195   5.958014
    14  O    2.629322   2.969482   2.589772   4.348753   4.964318
    15  N    2.789308   3.578161   3.620361   4.784684   5.573531
    16  H    2.996888   3.952209   4.226130   4.979931   5.849521
    17  H    4.787979   4.481809   5.396882   3.292300   3.561841
    18  H    4.796891   4.020805   4.704577   2.630893   2.378868
    19  H    2.994716   3.394586   3.258410   4.553331   5.194869
    20  H    4.773494   4.408818   5.293160   3.202015   3.418688
                    6          7          8          9         10
     6  C    0.000000
     7  C    1.504167   0.000000
     8  C    1.402227   2.519393   0.000000
     9  H    2.155740   2.715520   1.087017   0.000000
    10  C    2.431308   3.804283   1.389802   2.144294   0.000000
    11  H    3.416838   4.674907   2.156366   2.477792   1.085871
    12  S    4.555540   6.059668   4.026604   4.882124   2.738118
    13  O    5.212966   6.672869   4.349602   4.968218   2.974658
    14  O    5.212811   6.677321   5.001913   5.962033   3.874281
    15  N    5.299202   6.749389   4.775884   5.562079   3.569793
    16  H    5.244192   6.633742   4.543918   5.180774   3.383734
    17  H    2.151650   1.094604   2.782341   2.674592   4.115718
    18  H    2.155304   1.092748   3.426355   3.771907   4.584050
    19  H    5.241066   6.633555   4.966573   5.832292   3.939474
    20  H    2.148270   1.095549   2.872362   2.846905   4.170840
                   11         12         13         14         15
    11  H    0.000000
    12  S    2.879088   0.000000
    13  O    2.598714   1.463899   0.000000
    14  O    4.202554   1.463870   2.527947   0.000000
    15  N    3.604027   1.654692   2.490810   2.490902   0.000000
    16  H    3.234644   2.240079   2.686604   3.385572   1.022348
    17  H    4.854297   6.524247   7.076387   7.300728   7.015975
    18  H    5.543485   6.540253   7.324283   6.971619   7.186558
    19  H    4.205373   2.239878   3.385322   2.688177   1.022340
    20  H    4.940907   6.522952   6.970978   7.124148   7.397886
                   16         17         18         19         20
    16  H    0.000000
    17  H    6.751713   0.000000
    18  H    7.171076   1.776970   0.000000
    19  H    1.676931   6.905014   6.930733   0.000000
    20  H    7.291672   1.764405   1.773341   7.386329   0.000000
 Stoichiometry    C7H9NO2S
 Framework group  C1[X(C7H9NO2S)]
 Deg. of freedom    54
 Full point group                 C1      NOp   1
 Largest Abelian subgroup         C1      NOp   1
 Largest concise Abelian subgroup C1      NOp   1
                         Standard orientation:                         
 ---------------------------------------------------------------------
 Center     Atomic      Atomic             Coordinates (Angstroms)
 Number     Number       Type             X           Y           Z
 ---------------------------------------------------------------------
      1          6           0        0.116782    0.002755   -0.099001
      2          6           0       -0.558719    1.219740   -0.064643
      3          1           0       -0.013522    2.158423   -0.090460
      4          6           0       -1.950324    1.209504   -0.004483
      5          1           0       -2.490038    2.152248    0.017633
      6          6           0       -2.663132    0.005952    0.023960
      7          6           0       -4.166417   -0.004367    0.074457
      8          6           0       -1.951216   -1.201725   -0.006565
      9          1           0       -2.494286   -2.143141    0.013834
     10          6           0       -0.562786   -1.215345   -0.066793
     11          1           0       -0.018900   -2.154773   -0.094711
     12         16           0        1.890125    0.000250   -0.120117
     13          8           0        2.339541   -1.258455   -0.717352
     14          8           0        2.343347    1.269361   -0.691836
     15          7           0        2.443545   -0.016432    1.439195
     16          1           0        2.144039   -0.860379    1.932394
     17          1           0       -4.523382   -0.638307    0.892292
     18          1           0       -4.564008    1.003807    0.214475
     19          1           0        2.143207    0.816456    1.950344
     20          1           0       -4.578169   -0.409636   -0.856374
 ---------------------------------------------------------------------
 Rotational constants (GHZ):           2.5529556           0.5591898           0.5092889
 General basis read from cards:  (6D, 7F)
 There are   231 symmetry adapted cartesian basis functions of A   symmetry.
 There are   231 symmetry adapted basis functions of A   symmetry.
   231 basis functions,   412 primitive gaussians,   231 cartesian basis functions
    45 alpha electrons       45 beta electrons
       nuclear repulsion energy       723.9451430952 Hartrees.
 NAtoms=   20 NActive=   20 NUniq=   20 SFac= 1.00D+00 NAtFMM=   60 NAOKFM=F Big=F
 Integral buffers will be    131072 words long.
 Raffenetti 2 integral format.
 Two-electron integral symmetry is turned on.
 One-electron integrals computed using PRISM.
 NBasis=   231 RedAO= T EigKep=  1.97D-06  NBF=   231
 NBsUse=   231 1.00D-06 EigRej= -1.00D+00 NBFU=   231
 ExpMin= 4.05D-02 ExpMax= 2.19D+04 ExpMxC= 3.30D+03 IAcc=3 IRadAn=         5 AccDes= 0.00D+00
 Harris functional with IExCor= 1009 and IRadAn=       5 diagonalized for initial guess.
 HarFok:  IExCor= 1009 AccDes= 0.00D+00 IRadAn=         5 IDoV= 1 UseB2=F ITyADJ=14
 ICtDFT=  3500011 ScaDFX=  1.000000  1.000000  1.000000  1.000000
 FoFCou: FMM=F IPFlag=           0 FMFlag=      100000 FMFlg1=           0
         NFxFlg=           0 DoJE=T BraDBF=F KetDBF=T FulRan=T
         wScrn=  0.000000 ICntrl=       500 IOpCl=  0 I1Cent=   200000004 NGrid=           0
         NMat0=    1 NMatS0=      1 NMatT0=    0 NMatD0=    1 NMtDS0=    0 NMtDT0=    0
 Petite list used in FoFCou.
 Requested convergence on RMS density matrix=1.00D-08 within 128 cycles.
 Requested convergence on MAX density matrix=1.00D-06.
 Requested convergence on             energy=1.00D-06.
 No special actions if energy rises.
 SCF Done:  E(RM062X) =  -875.264491461     A.U. after   16 cycles
            NFock= 16  Conv=0.33D-08     -V/T= 2.0063

 **********************************************************************

            Population analysis using the SCF Density.

 **********************************************************************

 Orbital symmetries:
       Occupied  (A) (A) (A) (A) (A) (A) (A) (A) (A) (A) (A) (A)
                 (A) (A) (A) (A) (A) (A) (A) (A) (A) (A) (A) (A)
                 (A) (A) (A) (A) (A) (A) (A) (A) (A) (A) (A) (A)
                 (A) (A) (A) (A) (A) (A) (A) (A) (A)
       Virtual   (A) (A) (A) (A) (A) (A) (A) (A) (A) (A) (A) (A)
                 (A) (A) (A) (A) (A) (A) (A) (A) (A) (A) (A) (A)
                 (A) (A) (A) (A) (A) (A) (A) (A) (A) (A) (A) (A)
                 (A) (A) (A) (A) (A) (A) (A) (A) (A) (A) (A) (A)
                 (A) (A) (A) (A) (A) (A) (A) (A) (A) (A) (A) (A)
                 (A) (A) (A) (A) (A) (A) (A) (A) (A) (A) (A) (A)
                 (A) (A) (A) (A) (A) (A) (A) (A) (A) (A) (A) (A)
                 (A) (A) (A) (A) (A) (A) (A) (A) (A) (A) (A) (A)
                 (A) (A) (A) (A) (A) (A) (A) (A) (A) (A) (A) (A)
                 (A) (A) (A) (A) (A) (A) (A) (A) (A) (A) (A) (A)
                 (A) (A) (A) (A) (A) (A) (A) (A) (A) (A) (A) (A)
                 (A) (A) (A) (A) (A) (A) (A) (A) (A) (A) (A) (A)
                 (A) (A) (A) (A) (A) (A) (A) (A) (A) (A) (A) (A)
                 (A) (A) (A) (A) (A) (A) (A) (A) (A) (A) (A) (A)
                 (A) (A) (A) (A) (A) (A) (A) (A) (A) (A) (A) (A)
                 (A) (A) (A) (A) (A) (A)
 The electronic state is 1-A.
 Alpha  occ. eigenvalues --  -90.16642 -19.63957 -19.63956 -14.80987 -10.60208
 Alpha  occ. eigenvalues --  -10.59325 -10.58890 -10.58875 -10.58044 -10.58035
 Alpha  occ. eigenvalues --  -10.56560  -8.47627  -6.39846  -6.39781  -6.39703
 Alpha  occ. eigenvalues --   -1.24046  -1.12232  -1.03431  -0.99714  -0.90952
 Alpha  occ. eigenvalues --   -0.87481  -0.82081  -0.74703  -0.72329  -0.68685
 Alpha  occ. eigenvalues --   -0.64425  -0.62088  -0.58417  -0.56559  -0.55455
 Alpha  occ. eigenvalues --   -0.53450  -0.52003  -0.51627  -0.51333  -0.47430
 Alpha  occ. eigenvalues --   -0.46187  -0.44656  -0.42891  -0.41409  -0.39923
 Alpha  occ. eigenvalues --   -0.39512  -0.37565  -0.37444  -0.33607  -0.32371
 Alpha virt. eigenvalues --   -0.02168  -0.00855  -0.00080   0.01394   0.02445
 Alpha virt. eigenvalues --    0.03069   0.04489   0.04613   0.05772   0.05881
 Alpha virt. eigenvalues --    0.06776   0.07199   0.08143   0.08925   0.09541
 Alpha virt. eigenvalues --    0.10066   0.10296   0.10733   0.10877   0.12906
 Alpha virt. eigenvalues --    0.13322   0.13685   0.14218   0.14599   0.15024
 Alpha virt. eigenvalues --    0.16149   0.16613   0.16774   0.17109   0.17843
 Alpha virt. eigenvalues --    0.18845   0.19401   0.20615   0.21063   0.21743
 Alpha virt. eigenvalues --    0.21987   0.22625   0.22815   0.22970   0.23405
 Alpha virt. eigenvalues --    0.24819   0.25471   0.26058   0.27062   0.28027
 Alpha virt. eigenvalues --    0.28496   0.28885   0.28886   0.29826   0.30865
 Alpha virt. eigenvalues --    0.31751   0.31949   0.32541   0.33587   0.34074
 Alpha virt. eigenvalues --    0.35789   0.36426   0.37543   0.39026   0.39356
 Alpha virt. eigenvalues --    0.40359   0.41801   0.42886   0.46323   0.47680
 Alpha virt. eigenvalues --    0.55552   0.56380   0.57314   0.62339   0.65176
 Alpha virt. eigenvalues --    0.67582   0.68856   0.69542   0.70936   0.72736
 Alpha virt. eigenvalues --    0.73364   0.74657   0.74821   0.75758   0.77788
 Alpha virt. eigenvalues --    0.79355   0.80651   0.81245   0.82454   0.82951
 Alpha virt. eigenvalues --    0.87787   0.89596   0.92356   0.94318   0.96014
 Alpha virt. eigenvalues --    0.98189   0.99356   0.99704   1.02253   1.02365
 Alpha virt. eigenvalues --    1.03614   1.04792   1.08424   1.09294   1.09925
 Alpha virt. eigenvalues --    1.11891   1.12185   1.12974   1.15557   1.16743
 Alpha virt. eigenvalues --    1.18278   1.19019   1.19940   1.24487   1.25154
 Alpha virt. eigenvalues --    1.28345   1.31005   1.34182   1.37312   1.37584
 Alpha virt. eigenvalues --    1.38663   1.39167   1.41614   1.41983   1.42437
 Alpha virt. eigenvalues --    1.42982   1.48683   1.49624   1.50200   1.50978
 Alpha virt. eigenvalues --    1.53469   1.55787   1.61058   1.70271   1.75221
 Alpha virt. eigenvalues --    1.80856   1.81319   1.83783   1.84821   1.87957
 Alpha virt. eigenvalues --    1.88244   1.89697   1.90985   1.91823   1.93646
 Alpha virt. eigenvalues --    1.96036   1.96864   2.02647   2.03167   2.03683
 Alpha virt. eigenvalues --    2.11508   2.13349   2.14524   2.15848   2.17882
 Alpha virt. eigenvalues --    2.18434   2.19611   2.22073   2.24463   2.27482
 Alpha virt. eigenvalues --    2.31239   2.33334   2.35029   2.38376   2.40074
 Alpha virt. eigenvalues --    2.43481   2.44934   2.48782   2.61619   2.64635
 Alpha virt. eigenvalues --    2.66210   2.72210   2.77415   2.77886   2.81528
 Alpha virt. eigenvalues --    2.91841   2.92690   2.95685   3.06281   3.37115
 Alpha virt. eigenvalues --    3.88172   4.08532   4.23424   4.24950   4.26220
 Alpha virt. eigenvalues --    4.29233   4.31450   4.36442   4.40232   4.47316
 Alpha virt. eigenvalues --    4.71405
          Condensed to atoms (all electrons):
               1          2          3          4          5          6
     1  C   19.662129  -3.131966   0.117070  -1.239134   0.025286  -2.554824
     2  C   -3.131966  25.137252   0.148982  -4.976754   0.029420   0.903236
     3  H    0.117070   0.148982   0.442517  -0.007949  -0.003531  -0.015044
     4  C   -1.239134  -4.976754  -0.007949  13.631228   0.196602  -0.014919
     5  H    0.025286   0.029420  -0.003531   0.196602   0.489727   0.064912
     6  C   -2.554824   0.903236  -0.015044  -0.014919   0.064912   8.958216
     7  C   -0.774499  -0.189202   0.001078   0.360554  -0.044287  -1.518583
     8  C   -1.536736   0.848391  -0.030866  -2.006513   0.057889  -0.089045
     9  H    0.007008  -0.048619   0.000014   0.102836  -0.000132   0.103822
    10  C   -2.828103 -12.620998   0.092896   0.694851  -0.034820   0.682279
    11  H    0.113979   0.095133  -0.000120  -0.030511   0.000014  -0.014624
    12  S   -0.203568  -0.247986  -0.002095  -0.207087   0.002016  -0.409468
    13  O    0.019368   0.081666   0.001161   0.121453   0.000023  -0.024822
    14  O    0.037013  -0.349569  -0.000772  -0.074915   0.000177  -0.030888
    15  N   -0.587895   0.260623   0.001184   0.186190  -0.000011   0.142118
    16  H    0.051179   0.064889   0.000012  -0.002660   0.000000  -0.006834
    17  H   -0.002197   0.001193   0.000002  -0.014560   0.000111  -0.110249
    18  H    0.001027   0.014390  -0.000003   0.057945   0.003237  -0.165479
    19  H    0.053597  -0.138630  -0.000030  -0.018079   0.000001  -0.007377
    20  H    0.001198  -0.001619   0.000002   0.002437   0.000130   0.029170
               7          8          9         10         11         12
     1  C   -0.774499  -1.536736   0.007008  -2.828103   0.113979  -0.203568
     2  C   -0.189202   0.848391  -0.048619 -12.620998   0.095133  -0.247986
     3  H    0.001078  -0.030866   0.000014   0.092896  -0.000120  -0.002095
     4  C    0.360554  -2.006513   0.102836   0.694851  -0.030511  -0.207087
     5  H   -0.044287   0.057889  -0.000132  -0.034820   0.000014   0.002016
     6  C   -1.518583  -0.089045   0.103822   0.682279  -0.014624  -0.409468
     7  C    7.892867   0.266525  -0.031387  -0.414392   0.001066  -0.248445
     8  C    0.266525  13.118954   0.160423  -4.724605  -0.012814  -0.286514
     9  H   -0.031387   0.160423   0.487827   0.002484  -0.003547   0.002266
    10  C   -0.414392  -4.724605   0.002484  24.765706   0.152425  -0.026340
    11  H    0.001066  -0.012814  -0.003547   0.152425   0.442944  -0.000273
    12  S   -0.248445  -0.286514   0.002266  -0.026340  -0.000273  16.310532
    13  O   -0.006188  -0.075318   0.000190  -0.299086  -0.000743   0.339700
    14  O   -0.005573   0.121603   0.000021   0.119545   0.001175   0.335443
    15  N    0.030258   0.195822  -0.000014   0.229615   0.001055  -1.063756
    16  H   -0.000832  -0.018671   0.000001  -0.131784  -0.000032   0.091522
    17  H    0.439341   0.024557   0.000763   0.001110  -0.000001   0.000013
    18  H    0.459309  -0.017168   0.000082  -0.004825   0.000001  -0.000011
    19  H   -0.000831  -0.002965   0.000000   0.068477   0.000015   0.092379
    20  H    0.346635  -0.048051   0.000432   0.008694  -0.000000   0.000017
              13         14         15         16         17         18
     1  C    0.019368   0.037013  -0.587895   0.051179  -0.002197   0.001027
     2  C    0.081666  -0.349569   0.260623   0.064889   0.001193   0.014390
     3  H    0.001161  -0.000772   0.001184   0.000012   0.000002  -0.000003
     4  C    0.121453  -0.074915   0.186190  -0.002660  -0.014560   0.057945
     5  H    0.000023   0.000177  -0.000011   0.000000   0.000111   0.003237
     6  C   -0.024822  -0.030888   0.142118  -0.006834  -0.110249  -0.165479
     7  C   -0.006188  -0.005573   0.030258  -0.000832   0.439341   0.459309
     8  C   -0.075318   0.121603   0.195822  -0.018671   0.024557  -0.017168
     9  H    0.000190   0.000021  -0.000014   0.000001   0.000763   0.000082
    10  C   -0.299086   0.119545   0.229615  -0.131784   0.001110  -0.004825
    11  H   -0.000743   0.001175   0.001055  -0.000032  -0.000001   0.000001
    12  S    0.339700   0.335443  -1.063756   0.091522   0.000013  -0.000011
    13  O    8.710631  -0.182076  -0.148322  -0.006166  -0.000001   0.000000
    14  O   -0.182076   8.713863  -0.144970   0.010252  -0.000000   0.000000
    15  N   -0.148322  -0.144970   8.405061   0.207051  -0.000006   0.000000
    16  H   -0.006166   0.010252   0.207051   0.323144  -0.000000  -0.000000
    17  H   -0.000001  -0.000000  -0.000006  -0.000000   0.478341  -0.023182
    18  H    0.000000   0.000000   0.000000  -0.000000  -0.023182   0.479986
    19  H    0.010245  -0.006413   0.207710  -0.022482  -0.000000  -0.000000
    20  H    0.000001  -0.000000   0.000004   0.000000  -0.029058  -0.022855
              19         20
     1  C    0.053597   0.001198
     2  C   -0.138630  -0.001619
     3  H   -0.000030   0.000002
     4  C   -0.018079   0.002437
     5  H    0.000001   0.000130
     6  C   -0.007377   0.029170
     7  C   -0.000831   0.346635
     8  C   -0.002965  -0.048051
     9  H    0.000000   0.000432
    10  C    0.068477   0.008694
    11  H    0.000015  -0.000000
    12  S    0.092379   0.000017
    13  O    0.010245   0.000001
    14  O   -0.006413  -0.000000
    15  N    0.207710   0.000004
    16  H   -0.022482   0.000000
    17  H   -0.000000  -0.029058
    18  H   -0.000000  -0.022855
    19  H    0.322729   0.000000
    20  H    0.000000   0.466905
 Mulliken charges:
               1
     1  C   -1.229932
     2  C    0.120169
     3  H    0.255492
     4  C   -0.761016
     5  H    0.213236
     6  C    0.078404
     7  C   -0.563412
     8  C    0.055103
     9  H    0.215530
    10  C    0.266871
    11  H    0.254856
    12  S    1.521655
    13  O   -0.541717
    14  O   -0.543915
    15  N   -0.921720
    16  H    0.441412
    17  H    0.233824
    18  H    0.217545
    19  H    0.441656
    20  H    0.245959
 Sum of Mulliken charges =  -0.00000
 Mulliken charges with hydrogens summed into heavy atoms:
               1
     1  C   -1.229932
     2  C    0.375661
     4  C   -0.547780
     6  C    0.078404
     7  C    0.133916
     8  C    0.270633
    10  C    0.521726
    12  S    1.521655
    13  O   -0.541717
    14  O   -0.543915
    15  N   -0.038651
 Electronic spatial extent (au):  <R**2>=           2238.2849
 Charge=             -0.0000 electrons
 Dipole moment (field-independent basis, Debye):
    X=             -5.9662    Y=             -0.0853    Z=              4.0764  Tot=              7.2263
 Quadrupole moment (field-independent basis, Debye-Ang):
   XX=            -78.3098   YY=            -70.0355   ZZ=            -71.4065
   XY=              0.1291   XZ=              8.5953   YZ=             -0.0841
 Traceless Quadrupole moment (field-independent basis, Debye-Ang):
   XX=             -5.0592   YY=              3.2151   ZZ=              1.8441
   XY=              0.1291   XZ=              8.5953   YZ=             -0.0841
 Octapole moment (field-independent basis, Debye-Ang**2):
  XXX=            -57.8276  YYY=              0.3136  ZZZ=             12.6259  XYY=            -10.7372
  XXY=             -1.0087  XXZ=             13.7530  XZZ=             16.7294  YZZ=             -0.6242
  YYZ=              8.7926  XYZ=             -0.2152
 Hexadecapole moment (field-independent basis, Debye-Ang**3):
 XXXX=          -2330.6976 YYYY=           -429.1066 ZZZZ=           -194.7163 XXXY=              2.8793
 XXXZ=             12.6390 YYYX=             -2.9827 YYYZ=             -0.2392 ZZZX=             25.1113
 ZZZY=             -0.2729 XXYY=           -465.7836 XXZZ=           -422.7905 YYZZ=           -113.5799
 XXYZ=             -0.0323 YYXZ=             18.6920 ZZXY=              3.2061
 N-N= 7.239451430952D+02 E-N=-3.502989853136D+03  KE= 8.697567315578D+02
 Calling FoFJK, ICntrl=      2127 FMM=F ISym2X=0 I1Cent= 0 IOpClX= 0 NMat=1 NMatS=1 NMatT=0.
 ***** Axes restored to original set *****
 -------------------------------------------------------------------
 Center     Atomic                   Forces (Hartrees/Bohr)
 Number     Number              X              Y              Z
 -------------------------------------------------------------------
      1        6           0.000048403   -0.003508455   -0.001549557
      2        6           0.001388163   -0.000288430   -0.001819715
      3        1           0.000756385    0.000956173    0.001704365
      4        6           0.001633054   -0.000010561   -0.000380851
      5        1          -0.000078194    0.000126286   -0.000258215
      6        6          -0.000256654   -0.000162092    0.002063766
      7        6           0.000759853    0.000479552   -0.000445650
      8        6          -0.001512607   -0.000074779   -0.000378389
      9        1           0.000147356    0.000122112   -0.000325500
     10        6          -0.001317385   -0.000298274   -0.001896301
     11        1          -0.000840935    0.000977693    0.001626268
     12       16          -0.001151764    0.029418282    0.025901767
     13        8          -0.006073095   -0.008910123   -0.010488727
     14        8           0.006907264   -0.008758838   -0.010114461
     15        7           0.000410305   -0.012664570   -0.007958474
     16        1          -0.001662845    0.001370127    0.002916791
     17        1          -0.000535805   -0.000092334   -0.000550308
     18        1           0.000427256   -0.000027774   -0.000643890
     19        1           0.001438928    0.001387248    0.003021125
     20        1          -0.000487680   -0.000041241   -0.000424044
 -------------------------------------------------------------------
 Cartesian Forces:  Max     0.029418282 RMS     0.006174484

 GradGradGradGradGradGradGradGradGradGradGradGradGradGradGradGradGradGrad
 Berny optimization.
 FormGI is forming the generalized inverse of G from B-inverse, IUseBI=4.
 Internal  Forces:  Max     0.012453802 RMS     0.002699053
 Search for a local minimum.
 Step number   1 out of a maximum of  105
 All quantities printed in internal units (Hartrees-Bohrs-Radians)
 Mixed Optimization -- RFO/linear search
 Second derivative matrix not updated -- first step.
 ITU=  0
     Eigenvalues ---    0.00711   0.00721   0.01511   0.01633   0.01895
     Eigenvalues ---    0.02094   0.02135   0.02145   0.02170   0.02176
     Eigenvalues ---    0.02186   0.02194   0.04649   0.07169   0.07310
     Eigenvalues ---    0.09435   0.10349   0.14358   0.16000   0.16000
     Eigenvalues ---    0.16000   0.16000   0.16000   0.16000   0.16000
     Eigenvalues ---    0.16000   0.16000   0.19845   0.22000   0.22978
     Eigenvalues ---    0.23993   0.24979   0.24999   0.25000   0.28323
     Eigenvalues ---    0.31944   0.34179   0.34286   0.34497   0.35160
     Eigenvalues ---    0.35217   0.35294   0.35299   0.41946   0.42076
     Eigenvalues ---    0.42301   0.43966   0.43967   0.45818   0.46130
     Eigenvalues ---    0.46761   0.47151   0.89992   0.90004
 RFO step:  Lambda=-3.09353175D-03 EMin= 7.10819834D-03
 Linear search not attempted -- first point.
 Iteration  1 RMS(Cart)=  0.01471195 RMS(Int)=  0.00037581
 Iteration  2 RMS(Cart)=  0.00071991 RMS(Int)=  0.00018778
 Iteration  3 RMS(Cart)=  0.00000025 RMS(Int)=  0.00018778
 Variable       Old X    -DE/DX   Delta X   Delta X   Delta X     New X
                                 (Linear)    (Quad)   (Total)
    R1        2.63109  -0.00160   0.00000  -0.00349  -0.00348   2.62761
    R2        2.63657  -0.00156   0.00000  -0.00344  -0.00342   2.63315
    R3        3.35137   0.00302   0.00000   0.01056   0.01056   3.36193
    R4        2.05193   0.00010   0.00000   0.00028   0.00028   2.05221
    R5        2.63228   0.00070   0.00000   0.00148   0.00148   2.63376
    R6        2.05324   0.00021   0.00000   0.00058   0.00058   2.05383
    R7        2.64389  -0.00114   0.00000  -0.00238  -0.00239   2.64150
    R8        2.84246   0.00209   0.00000   0.00648   0.00648   2.84895
    R9        2.64982  -0.00106   0.00000  -0.00222  -0.00224   2.64759
   R10        2.06850  -0.00003   0.00000  -0.00008  -0.00008   2.06842
   R11        2.06499  -0.00013   0.00000  -0.00036  -0.00036   2.06463
   R12        2.07029  -0.00012   0.00000  -0.00034  -0.00034   2.06995
   R13        2.05416   0.00029   0.00000   0.00082   0.00082   2.05498
   R14        2.62634   0.00067   0.00000   0.00142   0.00142   2.62776
   R15        2.05200   0.00010   0.00000   0.00027   0.00027   2.05227
   R16        2.76637  -0.01243   0.00000  -0.01376  -0.01376   2.75261
   R17        2.76631  -0.01245   0.00000  -0.01379  -0.01379   2.75252
   R18        3.12691   0.00930   0.00000   0.02200   0.02200   3.14891
   R19        1.93196  -0.00296   0.00000  -0.00668  -0.00668   1.92528
   R20        1.93194  -0.00295   0.00000  -0.00665  -0.00665   1.92529
    A1        2.12497  -0.00131   0.00000  -0.00546  -0.00550   2.11947
    A2        2.07906   0.00066   0.00000   0.00319   0.00307   2.08212
    A3        2.07839   0.00067   0.00000   0.00320   0.00308   2.08147
    A4        2.10765  -0.00228   0.00000  -0.01305  -0.01313   2.09452
    A5        2.07070   0.00092   0.00000   0.00362   0.00360   2.07430
    A6        2.10482   0.00136   0.00000   0.00931   0.00923   2.11405
    A7        2.08376   0.00010   0.00000   0.00079   0.00077   2.08453
    A8        2.11320   0.00018   0.00000   0.00078   0.00078   2.11397
    A9        2.08623  -0.00028   0.00000  -0.00159  -0.00161   2.08461
   A10        2.11270   0.00048   0.00000   0.00179   0.00177   2.11447
   A11        2.07348  -0.00086   0.00000  -0.00322  -0.00323   2.07025
   A12        2.09697   0.00037   0.00000   0.00136   0.00135   2.09832
   A13        1.93369   0.00058   0.00000   0.00385   0.00385   1.93753
   A14        1.94078   0.00068   0.00000   0.00317   0.00317   1.94396
   A15        1.92798   0.00049   0.00000   0.00370   0.00369   1.93166
   A16        1.89646  -0.00091   0.00000  -0.00689  -0.00690   1.88956
   A17        1.87340  -0.00020   0.00000   0.00076   0.00074   1.87414
   A18        1.88958  -0.00072   0.00000  -0.00503  -0.00503   1.88455
   A19        2.08500  -0.00030   0.00000  -0.00176  -0.00178   2.08322
   A20        2.11366   0.00014   0.00000   0.00064   0.00064   2.11430
   A21        2.08453   0.00016   0.00000   0.00109   0.00107   2.08559
   A22        2.07035   0.00093   0.00000   0.00373   0.00371   2.07406
   A23        2.10686  -0.00225   0.00000  -0.01286  -0.01294   2.09392
   A24        2.10595   0.00132   0.00000   0.00902   0.00893   2.11489
   A25        1.88920  -0.00218   0.00000  -0.01579  -0.01628   1.87291
   A26        1.88916  -0.00216   0.00000  -0.01560  -0.01609   1.87307
   A27        1.89993  -0.00445   0.00000  -0.03789  -0.03862   1.86131
   A28        2.08409   0.00776   0.00000   0.07179   0.07190   2.15599
   A29        1.84742   0.00005   0.00000  -0.00564  -0.00639   1.84103
   A30        1.84755   0.00006   0.00000  -0.00549  -0.00623   1.84132
   A31        1.94438   0.00098   0.00000   0.01417   0.01386   1.95824
   A32        1.94410   0.00101   0.00000   0.01438   0.01407   1.95817
   A33        1.92331   0.00057   0.00000   0.01805   0.01752   1.94084
    D1        3.14153   0.00075   0.00000   0.03269   0.03254  -3.10912
    D2       -0.00669   0.00025   0.00000   0.01271   0.01272   0.00602
    D3        0.04250   0.00024   0.00000   0.00682   0.00676   0.04925
    D4       -3.10572  -0.00026   0.00000  -0.01316  -0.01307  -3.11879
    D5        0.00654  -0.00026   0.00000  -0.01296  -0.01297  -0.00643
    D6        3.14128  -0.00075   0.00000  -0.03294  -0.03279   3.10849
    D7        3.10559   0.00025   0.00000   0.01290   0.01280   3.11839
    D8       -0.04286  -0.00024   0.00000  -0.00708  -0.00701  -0.04988
    D9       -2.72351  -0.00317   0.00000  -0.02198  -0.02164  -2.74515
   D10       -0.44114   0.00361   0.00000   0.04699   0.04671  -0.39443
   D11        1.55933   0.00023   0.00000   0.01265   0.01267   1.57200
   D12        0.45950  -0.00362   0.00000  -0.04693  -0.04665   0.41286
   D13        2.74187   0.00316   0.00000   0.02204   0.02170   2.76357
   D14       -1.54085  -0.00021   0.00000  -0.01231  -0.01234  -1.55318
   D15       -3.13609   0.00014   0.00000   0.00536   0.00538  -3.13071
   D16        0.00224  -0.00009   0.00000  -0.00400  -0.00402  -0.00178
   D17       -0.00112  -0.00037   0.00000  -0.01467  -0.01476  -0.01588
   D18        3.13721  -0.00060   0.00000  -0.02404  -0.02416   3.11305
   D19       -3.13036   0.00010   0.00000   0.00555   0.00555  -3.12481
   D20        0.00216  -0.00006   0.00000  -0.00401  -0.00404  -0.00188
   D21        0.00797  -0.00012   0.00000  -0.00382  -0.00385   0.00412
   D22        3.14048  -0.00029   0.00000  -0.01339  -0.01343   3.12705
   D23       -2.23935   0.00014   0.00000  -0.00310  -0.00312  -2.24247
   D24       -0.12833  -0.00016   0.00000  -0.00708  -0.00710  -0.13543
   D25        1.97017  -0.00029   0.00000  -0.00885  -0.00888   1.96129
   D26        0.91144   0.00032   0.00000   0.00661   0.00664   0.91809
   D27        3.02246   0.00002   0.00000   0.00264   0.00266   3.02513
   D28       -1.16223  -0.00012   0.00000   0.00087   0.00088  -1.16134
   D29       -3.14027   0.00028   0.00000   0.01333   0.01338  -3.12690
   D30       -0.00231   0.00005   0.00000   0.00375   0.00378   0.00146
   D31       -0.00768   0.00012   0.00000   0.00386   0.00389  -0.00379
   D32        3.13029  -0.00011   0.00000  -0.00573  -0.00572   3.12457
   D33       -0.00193   0.00010   0.00000   0.00451   0.00453   0.00260
   D34       -3.13667   0.00061   0.00000   0.02457   0.02468  -3.11198
   D35        3.13603  -0.00013   0.00000  -0.00508  -0.00509   3.13094
   D36        0.00129   0.00038   0.00000   0.01498   0.01506   0.01636
   D37        1.07973   0.00108   0.00000   0.02191   0.02204   1.10177
   D38       -1.07559  -0.00111   0.00000  -0.02233  -0.02246  -1.09804
   D39       -0.94762   0.00575   0.00000   0.06154   0.06153  -0.88608
   D40       -3.10293   0.00355   0.00000   0.01730   0.01703  -3.08590
   D41        3.10708  -0.00355   0.00000  -0.01742  -0.01716   3.08992
   D42        0.95177  -0.00574   0.00000  -0.06166  -0.06166   0.89011
         Item               Value     Threshold  Converged?
 Maximum Force            0.012454     0.000450     NO 
 RMS     Force            0.002699     0.000300     NO 
 Maximum Displacement     0.046643     0.001800     NO 
 RMS     Displacement     0.014869     0.001200     NO 
 Predicted change in Energy=-1.580758D-03
 GradGradGradGradGradGradGradGradGradGradGradGradGradGradGradGradGradGrad

                          Input orientation:                          
 ---------------------------------------------------------------------
 Center     Atomic      Atomic             Coordinates (Angstroms)
 Number     Number       Type             X           Y           Z
 ---------------------------------------------------------------------
      1          6           0       -1.346145    0.713298   -0.820982
      2          6           0       -2.539615    0.776068   -1.531686
      3          1           0       -3.488204    0.750118   -1.003613
      4          6           0       -2.490432    0.904122   -2.918644
      5          1           0       -3.417505    0.964324   -3.482671
      6          6           0       -1.269058    0.971521   -3.595112
      7          6           0       -1.215112    1.131587   -5.093217
      8          6           0       -0.084623    0.909981   -2.849292
      9          1           0        0.872212    0.975198   -3.361895
     10          6           0       -0.112379    0.782767   -1.464849
     11          1           0        0.804826    0.762404   -0.883687
     12         16           0       -1.394731    0.514638    0.946281
     13          8           0       -0.131919    1.013811    1.473410
     14          8           0       -2.697227    0.983220    1.399647
     15          7           0       -1.383454   -1.125068    1.242765
     16          1           0       -0.526815   -1.569417    0.916113
     17          1           0       -0.568874    0.372993   -5.545962
     18          1           0       -2.208813    1.045195   -5.539055
     19          1           0       -2.207189   -1.590239    0.864523
     20          1           0       -0.807593    2.111880   -5.363013
 ---------------------------------------------------------------------
                    Distance matrix (angstroms):
                    1          2          3          4          5
     1  C    0.000000
     2  C    1.390472   0.000000
     3  H    2.150146   1.085982   0.000000
     4  C    2.397079   1.393724   2.164858   0.000000
     5  H    3.382031   2.147667   2.489300   1.086838   0.000000
     6  C    2.787188   2.431099   3.418990   1.397821   2.151399
     7  C    4.294662   3.816438   4.694393   2.531195   2.733564
     8  C    2.396698   2.789445   3.875107   2.406816   3.392967
     9  H    3.383184   3.876839   4.962397   3.392476   4.291431
    10  C    1.393402   2.428165   3.407345   2.789871   3.876652
    11  H    2.152445   3.406666   4.294722   3.875546   4.962214
    12  S    1.779058   2.742157   2.870569   4.036075   4.889729
    13  O    2.613214   3.857995   4.179692   4.986457   5.946450
    14  O    2.613326   2.942867   2.540795   4.323963   4.935199
    15  N    2.764061   3.556488   3.604512   4.760287   5.552718
    16  H    2.983218   3.942637   4.223200   4.967852   5.841681
    17  H    4.800561   4.490066   5.412730   3.298072   3.566727
    18  H    4.807761   4.029996   4.721668   2.639274   2.386670
    19  H    2.981377   3.384041   3.257023   4.540310   5.185437
    20  H    4.782897   4.411729   5.295700   3.203992   3.415290
                    6          7          8          9         10
     6  C    0.000000
     7  C    1.507597   0.000000
     8  C    1.401043   2.522362   0.000000
     9  H    2.153936   2.716404   1.087450   0.000000
    10  C    2.431369   3.808247   1.390553   2.145980   0.000000
    11  H    3.420022   4.683651   2.162522   2.488240   1.086015
    12  S    4.566047   6.073584   4.034731   4.889941   2.744060
    13  O    5.194688   6.656408   4.324208   4.938617   2.947393
    14  O    5.194941   6.661528   4.988441   5.950902   3.863542
    15  N    5.273881   6.727963   4.751139   5.540942   3.547765
    16  H    5.230530   6.624290   4.530036   5.170463   3.372463
    17  H    2.157385   1.094561   2.791932   2.685057   4.126959
    18  H    2.160436   1.092556   3.430057   3.773280   4.589451
    19  H    5.227910   6.624742   4.954676   5.824670   3.930058
    20  H    2.153797   1.095370   2.878547   2.849257   4.176786
                   11         12         13         14         15
    11  H    0.000000
    12  S    2.871971   0.000000
    13  O    2.548843   1.456617   0.000000
    14  O    4.186495   1.456573   2.566551   0.000000
    15  N    3.587884   1.666333   2.488843   2.489073   0.000000
    16  H    3.232636   2.257759   2.672001   3.385328   1.018812
    17  H    4.876013   6.546092   7.062093   7.289975   6.999610
    18  H    5.552877   6.557729   7.313627   6.956147   7.168287
    19  H    4.202785   2.257716   3.385051   2.673796   1.018819
    20  H    4.948266   6.534760   6.956936   7.111832   7.378736
                   16         17         18         19         20
    16  H    0.000000
    17  H    6.747825   0.000000
    18  H    7.164811   1.772372   0.000000
    19  H    1.681295   6.901643   6.924689   0.000000
    20  H    7.284106   1.764705   1.769809   7.378804   0.000000
 Stoichiometry    C7H9NO2S
 Framework group  C1[X(C7H9NO2S)]
 Deg. of freedom    54
 Full point group                 C1      NOp   1
 Largest Abelian subgroup         C1      NOp   1
 Largest concise Abelian subgroup C1      NOp   1
                         Standard orientation:                         
 ---------------------------------------------------------------------
 Center     Atomic      Atomic             Coordinates (Angstroms)
 Number     Number       Type             X           Y           Z
 ---------------------------------------------------------------------
      1          6           0        0.125359    0.002861   -0.094741
      2          6           0       -0.552918    1.216353   -0.066619
      3          1           0        0.000585    2.149253   -0.118476
      4          6           0       -1.945191    1.207238   -0.003681
      5          1           0       -2.485476    2.150191    0.008462
      6          6           0       -2.659082    0.005906    0.028949
      7          6           0       -4.165925   -0.004799    0.075391
      8          6           0       -1.945944   -1.199577   -0.005241
      9          1           0       -2.489732   -2.141236    0.005653
     10          6           0       -0.556887   -1.211809   -0.068545
     11          1           0       -0.004801   -2.145464   -0.122551
     12         16           0        1.903846    0.000460   -0.139697
     13          8           0        2.321527   -1.277997   -0.699003
     14          8           0        2.325844    1.288421   -0.673250
     15          7           0        2.421322   -0.016552    1.444157
     16          1           0        2.134200   -0.862567    1.933850
     17          1           0       -4.528932   -0.636290    0.892404
     18          1           0       -4.567235    1.001578    0.216222
     19          1           0        2.133894    0.818631    1.951942
     20          1           0       -4.578749   -0.406026   -0.856504
 ---------------------------------------------------------------------
 Rotational constants (GHZ):           2.5437953           0.5616117           0.5104844
 Basis read from rwf:  (6D, 7F)
 There are   231 symmetry adapted cartesian basis functions of A   symmetry.
 There are   231 symmetry adapted basis functions of A   symmetry.
   231 basis functions,   412 primitive gaussians,   231 cartesian basis functions
    45 alpha electrons       45 beta electrons
       nuclear repulsion energy       724.5025869806 Hartrees.
 NAtoms=   20 NActive=   20 NUniq=   20 SFac= 1.00D+00 NAtFMM=   60 NAOKFM=F Big=F
 Integral buffers will be    131072 words long.
 Raffenetti 2 integral format.
 Two-electron integral symmetry is turned on.
 One-electron integrals computed using PRISM.
 NBasis=   231 RedAO= T EigKep=  1.95D-06  NBF=   231
 NBsUse=   231 1.00D-06 EigRej= -1.00D+00 NBFU=   231
 Initial guess from the checkpoint file:  "/jobfs/40763683.gadi-pbs/Gau-2973388.chk"
 B after Tr=    -0.000000   -0.000000   -0.000000
         Rot=    1.000000    0.000024    0.000220    0.000012 Ang=   0.03 deg.
 ExpMin= 4.05D-02 ExpMax= 2.19D+04 ExpMxC= 3.30D+03 IAcc=3 IRadAn=         5 AccDes= 0.00D+00
 Harris functional with IExCor= 1009 and IRadAn=       5 diagonalized for initial guess.
 HarFok:  IExCor= 1009 AccDes= 0.00D+00 IRadAn=         5 IDoV= 1 UseB2=F ITyADJ=14
 ICtDFT=  3500011 ScaDFX=  1.000000  1.000000  1.000000  1.000000
 FoFCou: FMM=F IPFlag=           0 FMFlag=      100000 FMFlg1=           0
         NFxFlg=           0 DoJE=T BraDBF=F KetDBF=T FulRan=T
         wScrn=  0.000000 ICntrl=       500 IOpCl=  0 I1Cent=   200000004 NGrid=           0
         NMat0=    1 NMatS0=      1 NMatT0=    0 NMatD0=    1 NMtDS0=    0 NMtDT0=    0
 Petite list used in FoFCou.
 Requested convergence on RMS density matrix=1.00D-08 within 128 cycles.
 Requested convergence on MAX density matrix=1.00D-06.
 Requested convergence on             energy=1.00D-06.
 No special actions if energy rises.
 SCF Done:  E(RM062X) =  -875.266026042     A.U. after   14 cycles
            NFock= 14  Conv=0.30D-08     -V/T= 2.0063
 Calling FoFJK, ICntrl=      2127 FMM=F ISym2X=0 I1Cent= 0 IOpClX= 0 NMat=1 NMatS=1 NMatT=0.
 ***** Axes restored to original set *****
 -------------------------------------------------------------------
 Center     Atomic                   Forces (Hartrees/Bohr)
 Number     Number              X              Y              Z
 -------------------------------------------------------------------
      1        6           0.000026495    0.000492022   -0.000917530
      2        6          -0.000016465    0.000339200   -0.001253092
      3        1           0.000025746    0.000070364    0.000245251
      4        6          -0.000112982   -0.000062029    0.000062973
      5        1          -0.000070150   -0.000073512   -0.000005855
      6        6          -0.000053345    0.000037778    0.000132503
      7        6           0.000393117    0.000058140    0.000379634
      8        6           0.000124756   -0.000070697    0.000068230
      9        1           0.000054384   -0.000064481    0.000001852
     10        6           0.000066700    0.000307652   -0.001200567
     11        1          -0.000036772    0.000077411    0.000242346
     12       16          -0.000107994    0.003945946    0.002399453
     13        8          -0.005362405   -0.001721046   -0.000838045
     14        8           0.005443103   -0.001591107   -0.000530999
     15        7           0.000084367   -0.003946180   -0.001158937
     16        1          -0.000243093    0.001165565    0.001202738
     17        1          -0.000111718   -0.000092418   -0.000021199
     18        1          -0.000139055   -0.000072447   -0.000064781
     19        1           0.000141470    0.001167158    0.001220026
     20        1          -0.000106159    0.000032679    0.000036000
 -------------------------------------------------------------------
 Cartesian Forces:  Max     0.005443103 RMS     0.001376900

 GradGradGradGradGradGradGradGradGradGradGradGradGradGradGradGradGradGrad
 Berny optimization.
 Using GEDIIS/GDIIS optimizer.
 FormGI is forming the generalized inverse of G from B-inverse, IUseBI=4.
 Internal  Forces:  Max     0.005544514 RMS     0.000962711
 Search for a local minimum.
 Step number   2 out of a maximum of  105
 All quantities printed in internal units (Hartrees-Bohrs-Radians)
 Mixed Optimization -- En-DIIS/RFO-DIIS
 Update second derivatives using D2CorX and points    1    2
 DE= -1.53D-03 DEPred=-1.58D-03 R= 9.71D-01
 TightC=F SS=  1.41D+00  RLast= 1.73D-01 DXNew= 5.0454D-01 5.1869D-01
 Trust test= 9.71D-01 RLast= 1.73D-01 DXMaxT set to 5.05D-01
 ITU=  1  0
 Use linear search instead of GDIIS.
     Eigenvalues ---    0.00711   0.00721   0.01513   0.01633   0.01895
     Eigenvalues ---    0.02093   0.02135   0.02147   0.02163   0.02172
     Eigenvalues ---    0.02188   0.02207   0.04230   0.07139   0.07253
     Eigenvalues ---    0.10132   0.11364   0.14960   0.15826   0.15994
     Eigenvalues ---    0.15998   0.15999   0.16000   0.16000   0.16000
     Eigenvalues ---    0.16000   0.16483   0.19371   0.22000   0.22953
     Eigenvalues ---    0.23932   0.24995   0.24997   0.25210   0.28052
     Eigenvalues ---    0.32005   0.34179   0.34286   0.34500   0.35159
     Eigenvalues ---    0.35216   0.35294   0.35298   0.40632   0.42120
     Eigenvalues ---    0.42282   0.43752   0.43966   0.45822   0.46203
     Eigenvalues ---    0.46790   0.47179   0.83383   0.89998
 RFO step:  Lambda=-2.26364643D-04 EMin= 7.10805637D-03
 Quartic linear search produced a step of -0.00913.
 Iteration  1 RMS(Cart)=  0.00842392 RMS(Int)=  0.00002490
 Iteration  2 RMS(Cart)=  0.00002832 RMS(Int)=  0.00001031
 Iteration  3 RMS(Cart)=  0.00000000 RMS(Int)=  0.00001031
 Variable       Old X    -DE/DX   Delta X   Delta X   Delta X     New X
                                 (Linear)    (Quad)   (Total)
    R1        2.62761   0.00049   0.00003   0.00079   0.00082   2.62843
    R2        2.63315   0.00046   0.00003   0.00073   0.00076   2.63391
    R3        3.36193   0.00239  -0.00010   0.00921   0.00912   3.37105
    R4        2.05221   0.00010  -0.00000   0.00029   0.00029   2.05250
    R5        2.63376  -0.00032  -0.00001  -0.00055  -0.00056   2.63319
    R6        2.05383   0.00006  -0.00001   0.00021   0.00021   2.05403
    R7        2.64150  -0.00008   0.00002  -0.00041  -0.00038   2.64111
    R8        2.84895  -0.00033  -0.00006  -0.00051  -0.00057   2.84837
    R9        2.64759  -0.00007   0.00002  -0.00037  -0.00035   2.64724
   R10        2.06842   0.00001   0.00000   0.00001   0.00002   2.06844
   R11        2.06463   0.00016   0.00000   0.00043   0.00043   2.06506
   R12        2.06995  -0.00002   0.00000  -0.00008  -0.00008   2.06987
   R13        2.05498   0.00004  -0.00001   0.00019   0.00018   2.05516
   R14        2.62776  -0.00030  -0.00001  -0.00052  -0.00053   2.62723
   R15        2.05227   0.00010  -0.00000   0.00029   0.00029   2.05256
   R16        2.75261  -0.00554   0.00013  -0.00722  -0.00709   2.74552
   R17        2.75252  -0.00554   0.00013  -0.00722  -0.00709   2.74543
   R18        3.14891   0.00181  -0.00020   0.00606   0.00585   3.15477
   R19        1.92528  -0.00110   0.00006  -0.00302  -0.00296   1.92232
   R20        1.92529  -0.00110   0.00006  -0.00302  -0.00296   1.92233
    A1        2.11947  -0.00053   0.00005  -0.00248  -0.00244   2.11703
    A2        2.08212   0.00029  -0.00003   0.00132   0.00130   2.08342
    A3        2.08147   0.00025  -0.00003   0.00117   0.00115   2.08262
    A4        2.09452  -0.00037   0.00012  -0.00309  -0.00296   2.09156
    A5        2.07430   0.00028  -0.00003   0.00160   0.00156   2.07587
    A6        2.11405   0.00009  -0.00008   0.00154   0.00146   2.11550
    A7        2.08453   0.00003  -0.00001   0.00019   0.00018   2.08471
    A8        2.11397  -0.00013  -0.00001  -0.00064  -0.00065   2.11332
    A9        2.08461   0.00010   0.00001   0.00047   0.00048   2.08510
   A10        2.11447  -0.00013  -0.00002  -0.00028  -0.00029   2.11418
   A11        2.07025   0.00024   0.00003   0.00053   0.00056   2.07081
   A12        2.09832  -0.00011  -0.00001  -0.00025  -0.00027   2.09805
   A13        1.93753   0.00003  -0.00004   0.00056   0.00052   1.93805
   A14        1.94396  -0.00005  -0.00003  -0.00039  -0.00042   1.94353
   A15        1.93166  -0.00001  -0.00003   0.00050   0.00046   1.93212
   A16        1.88956  -0.00007   0.00006  -0.00146  -0.00140   1.88816
   A17        1.87414   0.00010  -0.00001   0.00136   0.00135   1.87549
   A18        1.88455   0.00000   0.00005  -0.00056  -0.00051   1.88404
   A19        2.08322   0.00010   0.00002   0.00040   0.00042   2.08364
   A20        2.11430  -0.00013  -0.00001  -0.00062  -0.00063   2.11367
   A21        2.08559   0.00003  -0.00001   0.00023   0.00022   2.08581
   A22        2.07406   0.00027  -0.00003   0.00157   0.00153   2.07559
   A23        2.09392  -0.00036   0.00012  -0.00303  -0.00291   2.09101
   A24        2.11489   0.00009  -0.00008   0.00151   0.00143   2.11631
   A25        1.87291   0.00051   0.00015   0.00341   0.00357   1.87648
   A26        1.87307   0.00050   0.00015   0.00342   0.00358   1.87664
   A27        1.86131   0.00187   0.00035   0.00729   0.00764   1.86895
   A28        2.15599  -0.00092  -0.00066  -0.00413  -0.00482   2.15117
   A29        1.84103  -0.00077   0.00006  -0.00423  -0.00419   1.83684
   A30        1.84132  -0.00077   0.00006  -0.00421  -0.00417   1.83715
   A31        1.95824  -0.00042  -0.00013   0.00202   0.00186   1.96010
   A32        1.95817  -0.00041  -0.00013   0.00209   0.00193   1.96009
   A33        1.94084   0.00111  -0.00016   0.01414   0.01392   1.95476
    D1       -3.10912   0.00007  -0.00030   0.00554   0.00525  -3.10387
    D2        0.00602   0.00016  -0.00012   0.00782   0.00770   0.01372
    D3        0.04925   0.00009  -0.00006   0.00506   0.00500   0.05425
    D4       -3.11879   0.00018   0.00012   0.00733   0.00745  -3.11134
    D5       -0.00643  -0.00015   0.00012  -0.00761  -0.00749  -0.01391
    D6        3.10849  -0.00007   0.00030  -0.00581  -0.00551   3.10298
    D7        3.11839  -0.00018  -0.00012  -0.00712  -0.00724   3.11116
    D8       -0.04988  -0.00010   0.00006  -0.00532  -0.00526  -0.05514
    D9       -2.74515   0.00020   0.00020   0.00010   0.00030  -2.74484
   D10       -0.39443  -0.00023  -0.00043  -0.00011  -0.00054  -0.39497
   D11        1.57200  -0.00002  -0.00012   0.00001  -0.00010   1.57190
   D12        0.41286   0.00023   0.00043  -0.00034   0.00010   0.41295
   D13        2.76357  -0.00020  -0.00020  -0.00055  -0.00075   2.76282
   D14       -1.55318   0.00001   0.00011  -0.00043  -0.00031  -1.55350
   D15       -3.13071  -0.00010  -0.00005  -0.00424  -0.00430  -3.13501
   D16       -0.00178  -0.00007   0.00004  -0.00315  -0.00312  -0.00490
   D17       -0.01588  -0.00002   0.00013  -0.00201  -0.00188  -0.01776
   D18        3.11305   0.00002   0.00022  -0.00092  -0.00070   3.11235
   D19       -3.12481  -0.00004  -0.00005  -0.00163  -0.00168  -3.12649
   D20       -0.00188  -0.00003   0.00004  -0.00155  -0.00151  -0.00339
   D21        0.00412  -0.00000   0.00004  -0.00054  -0.00051   0.00362
   D22        3.12705   0.00001   0.00012  -0.00046  -0.00034   3.12671
   D23       -2.24247   0.00008   0.00003   0.00029   0.00032  -2.24215
   D24       -0.13543  -0.00002   0.00006  -0.00146  -0.00139  -0.13682
   D25        1.96129  -0.00006   0.00008  -0.00209  -0.00201   1.95928
   D26        0.91809   0.00007  -0.00006   0.00020   0.00014   0.91822
   D27        3.02513  -0.00004  -0.00002  -0.00155  -0.00157   3.02356
   D28       -1.16134  -0.00007  -0.00001  -0.00218  -0.00219  -1.16353
   D29       -3.12690  -0.00000  -0.00012   0.00064   0.00052  -3.12638
   D30        0.00146   0.00004  -0.00003   0.00176   0.00173   0.00319
   D31       -0.00379   0.00001  -0.00004   0.00072   0.00069  -0.00310
   D32        3.12457   0.00005   0.00005   0.00185   0.00190   3.12647
   D33        0.00260   0.00006  -0.00004   0.00272   0.00268   0.00528
   D34       -3.11198  -0.00002  -0.00023   0.00097   0.00075  -3.11124
   D35        3.13094   0.00010   0.00005   0.00385   0.00390   3.13484
   D36        0.01636   0.00002  -0.00014   0.00210   0.00196   0.01832
   D37        1.10177   0.00041  -0.00020   0.01107   0.01088   1.11265
   D38       -1.09804  -0.00042   0.00021  -0.01124  -0.01104  -1.10909
   D39       -0.88608  -0.00063  -0.00056   0.00594   0.00541  -0.88067
   D40       -3.08590  -0.00146  -0.00016  -0.01637  -0.01651  -3.10241
   D41        3.08992   0.00145   0.00016   0.01622   0.01637   3.10629
   D42        0.89011   0.00062   0.00056  -0.00609  -0.00555   0.88456
         Item               Value     Threshold  Converged?
 Maximum Force            0.005545     0.000450     NO 
 RMS     Force            0.000963     0.000300     NO 
 Maximum Displacement     0.033092     0.001800     NO 
 RMS     Displacement     0.008415     0.001200     NO 
 Predicted change in Energy=-1.135010D-04
 GradGradGradGradGradGradGradGradGradGradGradGradGradGradGradGradGradGrad

                          Input orientation:                          
 ---------------------------------------------------------------------
 Center     Atomic      Atomic             Coordinates (Angstroms)
 Number     Number       Type             X           Y           Z
 ---------------------------------------------------------------------
      1          6           0       -1.345966    0.717083   -0.823973
      2          6           0       -2.538903    0.783531   -1.536084
      3          1           0       -3.486665    0.759649   -1.006119
      4          6           0       -2.490139    0.909236   -2.922972
      5          1           0       -3.417373    0.968102   -3.487088
      6          6           0       -1.268696    0.974540   -3.599099
      7          6           0       -1.214654    1.129912   -5.097390
      8          6           0       -0.084268    0.915206   -2.853435
      9          1           0        0.872760    0.979342   -3.366015
     10          6           0       -0.112605    0.790074   -1.469095
     11          1           0        0.803600    0.771905   -0.885997
     12         16           0       -1.394632    0.509319    0.947101
     13          8           0       -0.136770    1.003825    1.480076
     14          8           0       -2.692158    0.974068    1.406576
     15          7           0       -1.383919   -1.132601    1.248735
     16          1           0       -0.525074   -1.577442    0.933624
     17          1           0       -0.568703    0.369954   -5.548272
     18          1           0       -2.208520    1.040602   -5.542845
     19          1           0       -2.210834   -1.597924    0.882004
     20          1           0       -0.809129    2.110019   -5.370671
 ---------------------------------------------------------------------
                    Distance matrix (angstroms):
                    1          2          3          4          5
     1  C    0.000000
     2  C    1.390905   0.000000
     3  H    2.148856   1.086134   0.000000
     4  C    2.398302   1.393427   2.165586   0.000000
     5  H    3.383182   2.147601   2.490675   1.086947   0.000000
     6  C    2.788114   2.430214   3.418934   1.397618   2.151604
     7  C    4.295319   3.815300   4.694425   2.530544   2.733354
     8  C    2.397884   2.788904   3.874671   2.406883   3.393214
     9  H    3.384302   3.876394   4.962052   3.392682   4.291855
    10  C    1.393804   2.427232   3.405812   2.789378   3.876272
    11  H    2.151159   3.405154   4.291964   3.875157   4.961933
    12  S    1.783883   2.747864   2.873036   4.041972   4.895303
    13  O    2.617828   3.862124   4.178827   4.993409   5.952844
    14  O    2.617943   2.952802   2.549180   4.334744   4.947113
    15  N    2.778290   3.572222   3.617530   4.774512   5.565601
    16  H    3.004640   3.966001   4.242125   4.991832   5.864119
    17  H    4.800379   4.488918   5.412718   3.297717   3.566676
    18  H    4.807954   4.028570   4.721702   2.638239   2.385942
    19  H    3.002934   3.409707   3.278857   4.565271   5.208569
    20  H    4.785490   4.410866   5.295470   3.202952   3.413912
                    6          7          8          9         10
     6  C    0.000000
     7  C    1.507295   0.000000
     8  C    1.400858   2.521746   0.000000
     9  H    2.154109   2.716179   1.087545   0.000000
    10  C    2.430533   3.807168   1.390273   2.145943   0.000000
    11  H    3.419999   4.683732   2.163252   2.489639   1.086170
    12  S    4.571676   6.078931   4.040529   4.895401   2.749622
    13  O    5.203858   6.666393   4.334736   4.950187   2.957006
    14  O    5.204136   6.671498   4.995223   5.957037   3.867484
    15  N    5.287232   6.739505   4.765544   5.554172   3.563639
    16  H    5.254633   6.646685   4.555154   5.194033   3.398282
    17  H    2.157496   1.094569   2.791795   2.685408   4.126040
    18  H    2.160042   1.092783   3.429445   3.773145   4.588144
    19  H    5.252188   6.647301   4.979117   5.847779   3.953829
    20  H    2.153829   1.095327   2.879144   2.850583   4.177283
                   11         12         13         14         15
    11  H    0.000000
    12  S    2.874269   0.000000
    13  O    2.556636   1.452865   0.000000
    14  O    4.185342   1.452819   2.556618   0.000000
    15  N    3.601314   1.669431   2.484596   2.484845   0.000000
    16  H    3.255123   2.260727   2.666895   3.380849   1.017248
    17  H    4.876637   6.549156   7.070080   7.296844   7.008677
    18  H    5.552594   6.562323   7.322222   6.966548   7.178325
    19  H    4.222408   2.260729   3.380611   2.668706   1.017254
    20  H    4.950125   6.543645   6.971977   7.125114   7.393342
                   16         17         18         19         20
    16  H    0.000000
    17  H    6.768252   0.000000
    18  H    7.185597   1.771665   0.000000
    19  H    1.686675   6.922253   6.945539   0.000000
    20  H    7.309048   1.765551   1.769629   7.403347   0.000000
 Stoichiometry    C7H9NO2S
 Framework group  C1[X(C7H9NO2S)]
 Deg. of freedom    54
 Full point group                 C1      NOp   1
 Largest Abelian subgroup         C1      NOp   1
 Largest concise Abelian subgroup C1      NOp   1
                         Standard orientation:                         
 ---------------------------------------------------------------------
 Center     Atomic      Atomic             Coordinates (Angstroms)
 Number     Number       Type             X           Y           Z
 ---------------------------------------------------------------------
      1          6           0        0.121517    0.002885   -0.099479
      2          6           0       -0.558628    1.215876   -0.073579
      3          1           0       -0.003657    2.147893   -0.128700
      4          6           0       -1.950381    1.207180   -0.005866
      5          1           0       -2.490544    2.150297    0.008586
      6          6           0       -2.663586    0.005770    0.030028
      7          6           0       -4.169882   -0.005020    0.083806
      8          6           0       -1.950968   -1.199703   -0.007610
      9          1           0       -2.494568   -2.141556    0.005292
     10          6           0       -0.562399   -1.211352   -0.075420
     11          1           0       -0.008767   -2.144066   -0.132867
     12         16           0        1.904958    0.000471   -0.139089
     13          8           0        2.328227   -1.273187   -0.695374
     14          8           0        2.332449    1.283305   -0.670381
     15          7           0        2.430653   -0.016155    1.445325
     16          1           0        2.155828   -0.864720    1.934409
     17          1           0       -4.529402   -0.636294    0.902538
     18          1           0       -4.570155    1.001512    0.228202
     19          1           0        2.155628    0.821862    1.952174
     20          1           0       -4.587719   -0.404134   -0.846711
 ---------------------------------------------------------------------
 Rotational constants (GHZ):           2.5497982           0.5595108           0.5089539
 Basis read from rwf:  (6D, 7F)
 There are   231 symmetry adapted cartesian basis functions of A   symmetry.
 There are   231 symmetry adapted basis functions of A   symmetry.
   231 basis functions,   412 primitive gaussians,   231 cartesian basis functions
    45 alpha electrons       45 beta electrons
       nuclear repulsion energy       724.1470985087 Hartrees.
 NAtoms=   20 NActive=   20 NUniq=   20 SFac= 1.00D+00 NAtFMM=   60 NAOKFM=F Big=F
 Integral buffers will be    131072 words long.
 Raffenetti 2 integral format.
 Two-electron integral symmetry is turned on.
 One-electron integrals computed using PRISM.
 NBasis=   231 RedAO= T EigKep=  1.97D-06  NBF=   231
 NBsUse=   231 1.00D-06 EigRej= -1.00D+00 NBFU=   231
 Initial guess from the checkpoint file:  "/jobfs/40763683.gadi-pbs/Gau-2973388.chk"
 B after Tr=     0.000000   -0.000000    0.000000
         Rot=    1.000000    0.000044   -0.000232   -0.000010 Ang=   0.03 deg.
 ExpMin= 4.05D-02 ExpMax= 2.19D+04 ExpMxC= 3.30D+03 IAcc=3 IRadAn=         5 AccDes= 0.00D+00
 Harris functional with IExCor= 1009 and IRadAn=       5 diagonalized for initial guess.
 HarFok:  IExCor= 1009 AccDes= 0.00D+00 IRadAn=         5 IDoV= 1 UseB2=F ITyADJ=14
 ICtDFT=  3500011 ScaDFX=  1.000000  1.000000  1.000000  1.000000
 FoFCou: FMM=F IPFlag=           0 FMFlag=      100000 FMFlg1=           0
         NFxFlg=           0 DoJE=T BraDBF=F KetDBF=T FulRan=T
         wScrn=  0.000000 ICntrl=       500 IOpCl=  0 I1Cent=   200000004 NGrid=           0
         NMat0=    1 NMatS0=      1 NMatT0=    0 NMatD0=    1 NMtDS0=    0 NMtDT0=    0
 Petite list used in FoFCou.
 Requested convergence on RMS density matrix=1.00D-08 within 128 cycles.
 Requested convergence on MAX density matrix=1.00D-06.
 Requested convergence on             energy=1.00D-06.
 No special actions if energy rises.
 SCF Done:  E(RM062X) =  -875.266143623     A.U. after   12 cycles
            NFock= 12  Conv=0.68D-08     -V/T= 2.0063
 Calling FoFJK, ICntrl=      2127 FMM=F ISym2X=0 I1Cent= 0 IOpClX= 0 NMat=1 NMatS=1 NMatT=0.
 ***** Axes restored to original set *****
 -------------------------------------------------------------------
 Center     Atomic                   Forces (Hartrees/Bohr)
 Number     Number              X              Y              Z
 -------------------------------------------------------------------
      1        6           0.000006231    0.000299488   -0.000139741
      2        6          -0.000106043   -0.000144891    0.000039262
      3        1          -0.000085863   -0.000068203    0.000000164
      4        6          -0.000176169    0.000093448    0.000114768
      5        1           0.000015663    0.000012517    0.000048705
      6        6           0.000021771   -0.000029238   -0.000092359
      7        6           0.000042819   -0.000021497    0.000077997
      8        6           0.000158154    0.000071233    0.000106155
      9        1          -0.000025543    0.000016234    0.000049799
     10        6           0.000107392   -0.000131229    0.000060801
     11        1           0.000082122   -0.000069126    0.000004898
     12       16          -0.000011380   -0.000457280    0.001038017
     13        8          -0.000913129    0.000182222   -0.000487477
     14        8           0.000922911    0.000211654   -0.000437566
     15        7           0.000034268   -0.000232229   -0.001077148
     16        1           0.000146941    0.000144096    0.000326209
     17        1           0.000008845   -0.000001382    0.000026892
     18        1          -0.000052023   -0.000014988    0.000000135
     19        1          -0.000168678    0.000139886    0.000319618
     20        1          -0.000008289   -0.000000713    0.000020871
 -------------------------------------------------------------------
 Cartesian Forces:  Max     0.001077148 RMS     0.000297649

 GradGradGradGradGradGradGradGradGradGradGradGradGradGradGradGradGradGrad
 Berny optimization.
 Using GEDIIS/GDIIS optimizer.
 FormGI is forming the generalized inverse of G from B-inverse, IUseBI=4.
 Internal  Forces:  Max     0.000907136 RMS     0.000202838
 Search for a local minimum.
 Step number   3 out of a maximum of  105
 All quantities printed in internal units (Hartrees-Bohrs-Radians)
 Mixed Optimization -- En-DIIS/RFO-DIIS
 Swapping is turned off.
 Update second derivatives using D2CorX and points    1    2    3
 DE= -1.18D-04 DEPred=-1.14D-04 R= 1.04D+00
 TightC=F SS=  1.41D+00  RLast= 4.34D-02 DXNew= 8.4853D-01 1.3023D-01
 Trust test= 1.04D+00 RLast= 4.34D-02 DXMaxT set to 5.05D-01
 ITU=  1  1  0
     Eigenvalues ---    0.00710   0.00721   0.01514   0.01634   0.01895
     Eigenvalues ---    0.02089   0.02136   0.02148   0.02171   0.02188
     Eigenvalues ---    0.02206   0.02228   0.03628   0.07144   0.07246
     Eigenvalues ---    0.10030   0.11643   0.15144   0.15994   0.15995
     Eigenvalues ---    0.15999   0.15999   0.16000   0.16000   0.16000
     Eigenvalues ---    0.16062   0.16815   0.19449   0.22000   0.23061
     Eigenvalues ---    0.24135   0.24996   0.24997   0.25783   0.29767
     Eigenvalues ---    0.31985   0.34179   0.34286   0.34492   0.35163
     Eigenvalues ---    0.35220   0.35278   0.35297   0.40830   0.42239
     Eigenvalues ---    0.42340   0.43653   0.43966   0.45824   0.46187
     Eigenvalues ---    0.46774   0.47150   0.75848   0.89998
 En-DIIS/RFO-DIIS/Sim-DIIS IScMMF=       -3 using points:     3    2
 RFO step:  Lambda=-2.23529800D-05.
 DidBck=F Rises=F RFO-DIIS coefs:    1.17099   -0.17099
[...]
 ,-0.00077457,-0.05635258,-0.00088827,0.02334578,-0.00339559,0.00005878
 ,0.00334066,-0.27571931,0.01372436,-0.12544304,0.00481689,0.00083087,-
 0.00352513,0.72411838,-0.00783988,0.00864667,0.00331504,0.00319226,-0.
 00641463,0.00470346,0.00003006,-0.00089087,0.00010865,0.00301443,0.008
 35794,-0.00570367,-0.00020615,0.00662776,0.00066232,0.00695487,-0.0700
 2586,0.01179839,0.00399387,0.00467112,0.00303975,-0.00118178,0.1418844
 4,0.08811115,0.00170553,-0.02713124,-0.03489624,0.00456959,-0.06059118
 ,-0.00068103,0.00008152,-0.00095184,-0.02953454,-0.00505234,0.07194867
 ,0.00375728,0.00082763,-0.00103162,-0.04727653,0.01130939,-0.18035803,
 -0.02866505,0.00288084,-0.02259652,-0.03567871,-0.05249236,0.70978573,
 0.00179210,-0.00000308,-0.00026514,0.00006442,0.00010161,-0.00105404,-
 0.00000620,-0.00001707,0.00009577,-0.00298618,0.00045929,-0.00383777,-
 0.00105060,-0.00005728,0.00075661,-0.01916388,-0.00123795,0.01482028,0
 .00104073,0.00027090,0.00154579,-0.28023141,-0.00995349,0.11830335,0.2
 9586846,0.00051532,0.00732150,0.00090230,0.00002769,-0.00082434,-0.000
 23110,-0.00006958,-0.00100815,-0.00009403,0.00018705,0.00666020,0.0009
 6164,0.00009063,-0.00000589,-0.00000640,0.00189150,0.00424188,-0.00123
 003,-0.00081682,-0.00302961,-0.00002862,-0.01008459,-0.03908278,0.0069
 5380,0.01053936,0.02681232,-0.00086630,0.00130910,-0.00549092,-0.00079
 110,0.00002378,-0.00079717,0.00008968,-0.00010523,0.00004553,-0.003409
 22,0.00078512,-0.00143926,-0.00086284,0.00001392,0.00064623,-0.0147455
 4,-0.00064953,0.01078963,-0.00085873,-0.00016734,0.00128881,0.11831606
 ,0.00685122,-0.12237787,-0.12703081,-0.00866996,0.12726980,-0.30019730
 ,-0.00856110,0.11716501,-0.05903751,0.00342195,-0.03208348,-0.00270553
 ,0.00028643,-0.00357163,-0.02297608,-0.00298029,0.03707445,-0.00005268
 ,-0.00004359,0.00082647,0.04730710,0.00286161,-0.02563437,-0.00502624,
 -0.00020616,-0.00159710,-0.13154384,0.00360887,-0.03464929,0.00369484,
 -0.00299446,0.02872547,0.73304427,-0.00543824,-0.06204614,0.00825457,-
 0.00120051,0.00920057,-0.00326539,0.00071975,0.00622399,0.00051364,-0.
 00181238,-0.00636678,0.00340047,-0.00012639,-0.00082237,-0.00000847,0.
 00610936,0.00600080,0.00337488,0.00155474,0.00625161,-0.00006536,-0.00
 321288,-0.06645229,0.02702640,0.00017330,0.00347037,0.00144544,-0.0026
 4005,0.14456743,0.05375266,0.00921038,-0.15800058,0.02547178,-0.003997
 92,0.06903083,-0.00397560,0.00064762,-0.00190522,0.03208443,0.00364489
 ,-0.05746697,0.00110921,-0.00025932,-0.00070409,-0.08488598,0.00414332
 ,-0.02885591,-0.00252923,-0.00113531,0.00291675,0.04310157,0.02645400,
 -0.35552450,-0.00179162,0.00154766,-0.01063807,0.03975077,-0.04997761,
 0.70821823,-0.01868024,0.00103019,-0.01448540,-0.00311455,-0.00047223,
 0.00393627,-0.00083091,0.00009822,-0.00088949,0.00031458,-0.00007356,0
 .00075228,0.00000594,0.00004437,-0.00009350,0.00126205,-0.00038840,0.0
 0129894,0.00020982,0.00000857,0.00013123,0.00655121,-0.00037595,0.0026
 1545,0.00058059,0.00018088,-0.00022713,-0.26816506,0.00892017,-0.12964
 052,0.28272858,-0.00077193,0.00352337,-0.00090875,-0.00004340,0.006164
 97,0.00050874,-0.00005782,0.00043383,-0.00001229,-0.00019502,-0.000856
 97,0.00005298,-0.00000787,-0.00099273,-0.00010010,-0.00007152,0.007688
 62,0.00122328,0.00005632,-0.00017976,0.00010086,0.00286388,0.00442100,
 0.00141534,-0.00006239,-0.00434766,-0.00046347,0.00700144,-0.04004658,
 0.00697811,-0.00850854,0.02788108,0.01152831,-0.00083577,0.01223245,0.
 00352455,0.00037132,-0.00153077,0.00080876,-0.00003537,0.00074044,0.00
 083764,0.00008169,-0.00088119,-0.00010135,-0.00008607,0.00003080,0.001
 41453,0.00103239,-0.00497491,-0.00131356,-0.00013664,-0.00009145,-0.02
 640370,0.00116387,-0.00974117,0.00027451,-0.00034289,0.00101989,-0.131
 08827,0.00764734,-0.13974108,0.13928819,-0.00913851,0.14399538,-0.0796
 4633,-0.00012286,0.00229026,0.01152846,0.00251185,-0.01899667,-0.00383
 008,-0.00009641,-0.00392028,-0.00549585,0.00121321,-0.00550066,0.00019
 178,-0.00003218,-0.00150447,-0.00464382,0.00002783,-0.00011498,-0.0004
 2255,0.00003252,0.00001650,-0.00593067,-0.00083062,0.00490426,0.000147
 71,0.00004417,0.00145002,0.00974653,-0.00301268,0.02061563,-0.00391714
 ,0.00016068,0.00366583,1.15538015,0.00001267,-0.06006703,0.01096309,0.
 00040331,-0.00227310,0.00123982,0.00032506,-0.00187568,0.00089388,0.00
 086427,0.00641063,-0.00064797,-0.00012185,0.00060725,-0.00025296,0.000
 04533,-0.00086442,-0.00021097,0.00005579,-0.00058493,-0.00000085,-0.00
 047254,0.00630630,-0.00085877,0.00014943,0.00058825,-0.00029005,-0.000
 81459,-0.00223225,0.00059971,-0.00031976,-0.00178096,0.00078200,-0.007
 95767,0.57877948,0.00245423,0.01607045,-0.16278516,-0.01368040,0.00237
 629,-0.02117259,0.00196763,0.00007921,0.00087183,-0.00283901,-0.000310
 12,0.00579242,0.00060045,0.00007748,0.00121218,0.00014655,0.00109786,-
 0.00222649,-0.00064281,-0.00163871,0.00048829,0.00222238,-0.00047904,0
 .00621326,-0.00065595,0.00009772,0.00123896,0.01523959,0.00181256,-0.0
 1936976,-0.00221667,0.00016247,0.00094765,0.01597656,0.08268530,0.5543
 3637,-0.00606070,-0.00617119,0.00226178,0.00199191,-0.00022392,-0.0041
 7581,0.00079206,-0.00033424,0.00082915,-0.00027179,0.00049745,-0.00005
 950,0.00002620,0.00011996,-0.00047860,0.00010648,-0.00034205,0.0005583
 4,0.00037376,0.00014249,-0.00005778,0.00219682,0.00071308,-0.00082542,
 0.00006392,0.00002853,-0.00051192,-0.00452336,0.00044564,0.00050929,0.
 00215483,-0.00067319,-0.00133060,-0.48383959,-0.14272066,-0.16191217,0
 .50648129,-0.00336468,0.00837269,0.00328667,0.00037805,0.00163887,-0.0
 0225525,0.00014895,0.00007050,-0.00012109,-0.00081953,-0.00076367,0.00
 054812,0.00001396,-0.00017505,-0.00013124,0.00051399,0.00006008,0.0000
 7152,0.00002208,0.00000823,-0.00002051,0.00011413,-0.00014985,-0.00039
 515,0.00000208,-0.00003245,-0.00005863,-0.00040973,0.00071395,0.000877
 44,0.00013261,-0.00079754,-0.00010898,-0.14645914,-0.13734576,-0.06072
 733,0.17508231,0.13120918,-0.03049936,-0.01063850,-0.00488450,0.005725
 40,-0.00102412,-0.00593140,-0.00031499,-0.00045384,-0.00001395,-0.0019
 1946,0.00132582,-0.00172263,0.00001132,0.00022221,-0.00093509,-0.00085
 488,-0.00035137,0.00029805,0.00006436,0.00019179,-0.00003836,-0.000874
 93,0.00056192,0.00008074,0.00016989,-0.00002159,-0.00028227,-0.0004176
 8,-0.00058825,-0.00153491,-0.00127061,-0.00023791,-0.00139659,-0.17335
 078,-0.06608449,-0.16080107,0.18912178,0.07202470,0.14813388,-0.007301
 14,0.00702673,-0.00231761,-0.00450132,-0.00024683,-0.00068417,0.002030
 93,0.00058671,0.00151308,0.00207936,-0.00080192,0.00091687,0.00004342,
 -0.00003133,0.00052823,0.00017143,0.00035118,-0.00056323,0.00018484,-0
 .00016423,0.00005598,-0.00038772,-0.00054617,0.00015045,-0.00000537,-0
 .00013528,0.00052255,0.00205693,0.00025264,0.00455259,0.00082253,0.000
 31699,-0.00078724,-0.49486993,0.15284602,0.14370540,-0.01449879,0.0145
 4616,0.01483476,0.51842013,0.00349030,0.00813497,0.00348648,0.00050083
 ,0.00069670,0.00092355,-0.00021042,-0.00080626,-0.00015160,-0.00015956
 ,-0.00013114,-0.00042065,0.00000007,-0.00003299,-0.00007192,-0.0005158
 8,0.00007935,0.00005173,-0.00003566,-0.00000047,-0.00000993,0.00076262
 ,-0.00077289,0.00058308,-0.00001266,-0.00017479,-0.00014056,-0.0002519
 7,0.00168464,-0.00232141,-0.00015988,0.00005813,-0.00011084,0.15633034
 ,-0.14325316,-0.05592378,-0.01398252,0.01598438,0.00001842,-0.18603078
 ,0.13829838,0.03013154,-0.01091867,-0.00346827,0.00025414,-0.00059615,
 -0.00155231,0.00146142,-0.00024319,-0.00127634,0.00100932,0.00048985,0
 .00017514,-0.00015248,-0.00001643,-0.00026863,0.00075232,-0.00035731,0
 .00032325,0.00015466,0.00019930,-0.00003875,0.00204671,0.00120036,-0.0
 0162345,0.00004525,0.00020875,-0.00090809,-0.00536174,-0.00082129,-0.0
 0602523,0.00034961,-0.00043108,-0.00003401,0.15501143,-0.06166115,-0.1
 4461942,-0.01651335,0.00105337,0.01860506,-0.16880777,0.06619780,0.129
 94931,0.01127175,-0.00077510,0.00032959,-0.00127617,-0.00042621,0.0008
 0282,0.00021004,-0.00004948,0.00036692,0.00024645,-0.00009633,0.001109
 82,-0.00002237,0.00007411,0.00017135,0.00103215,0.00000162,0.00002513,
 0.00003721,-0.00002385,-0.00000253,0.00033607,0.00017222,-0.00103004,-
 0.00002448,-0.00007098,-0.00014990,-0.00102745,0.00037304,-0.00083103,
 0.00022273,0.00000993,-0.00034534,-0.10114842,-0.00131011,-0.00072905,
 -0.00624357,-0.04106084,0.00001535,-0.00559836,0.04158343,-0.00075087,
 0.75585388,-0.00010869,-0.00735959,-0.00023061,-0.00196158,-0.00102945
 ,0.00173711,-0.00009976,-0.00078681,-0.00045927,-0.00001616,0.00113129
 ,0.00104890,0.00010205,-0.00001525,0.00041016,0.00005050,0.00027132,-0
 .00025077,-0.00012372,-0.00062533,0.00008258,-0.00001736,0.00111888,0.
 00106446,-0.00012502,-0.00001329,0.00040160,0.00184465,-0.00108026,0.0
 0183393,0.00008374,-0.00078152,-0.00044333,-0.00220988,-0.21963380,0.0
 4028515,-0.00645265,-0.01397775,0.00303446,0.00612203,-0.01486096,0.00
 338085,-0.00513497,0.53081503,0.00045239,0.02332421,-0.00186910,0.0032
 3459,0.00141990,0.00018187,-0.00018825,0.00059140,-0.00032664,0.000751
 63,-0.00151450,-0.00098314,-0.00011560,-0.00006553,-0.00030258,-0.0000
 9051,-0.00038431,0.00042561,0.00019236,0.00071832,-0.00013182,-0.00070
 726,-0.00143113,-0.00100841,0.00013020,-0.00006601,-0.00029494,-0.0031
 9410,0.00149422,-0.00005940,0.00023871,0.00055837,-0.00033375,-0.00103
 085,0.00751178,-0.05871531,-0.00610646,-0.01469387,0.00933158,0.005056
 87,-0.01265709,0.00958377,0.01685624,0.11640839,0.15875431,0.00008025,
 -0.00105490,0.00005320,-0.00048150,-0.00017588,-0.00009266,-0.00002148
 ,-0.00005211,-0.00001068,-0.00015987,0.00012047,0.00017604,0.00000531,
 0.00001363,0.00004151,0.00017651,-0.00017046,-0.00003530,-0.00002928,-
 0.00000439,0.00001851,-0.00011552,0.00014474,-0.00009007,-0.00001864,-
 0.00000953,0.00006683,0.00062303,-0.00011168,0.00029110,-0.00011158,-0
 .00015069,-0.00000443,0.00375528,0.00302219,0.00053089,-0.00165220,-0.
 00125169,-0.00077697,0.00301674,-0.00266397,-0.00039094,-0.33045637,0.
 13855384,0.09258493,0.34270773,-0.00189025,0.00054099,-0.00012363,0.00
 033883,0.00037714,0.00011325,-0.00002871,-0.00005580,-0.00008366,0.000
 09209,-0.00008232,-0.00037453,-0.00001546,-0.00001505,-0.00004758,-0.0
 0028204,-0.00012499,0.00000730,-0.00000439,0.00009262,0.00000075,-0.00
 021875,-0.00009721,0.00021530,0.00003354,0.00001753,0.00000769,0.00014
 866,0.00015856,0.00041252,-0.00023488,-0.00019473,0.00014321,0.0316716
 8,-0.01166355,-0.01230451,-0.00336876,0.00297668,0.00164778,0.00244564
 ,-0.00781220,0.00058654,0.14147560,-0.13913529,-0.05783912,-0.15326218
 ,0.14350480,0.00098721,-0.00041765,-0.00026756,-0.00035362,-0.00002634
 ,-0.00019867,0.00000457,-0.00006032,0.00009805,-0.00013290,0.00002350,
 0.00026896,0.00001255,0.00001655,0.00002237,0.00023228,0.00016011,-0.0
 0007965,-0.00000791,-0.00007300,-0.00000753,0.00018650,-0.00010956,-0.
 00033612,-0.00001191,0.00000313,-0.00001682,0.00001401,-0.00001663,-0.
 00027724,0.00020988,0.00023257,0.00012927,-0.00465590,0.01296398,-0.00
 193388,-0.00197355,-0.00049139,-0.00210209,-0.00096960,0.00100443,0.00
 364089,0.12522604,-0.08210806,-0.05062773,-0.10521189,0.06057155,0.051
 27963,0.00041004,0.00004500,-0.00036745,-0.00019442,-0.00009915,0.0000
 2106,0.00000813,0.00000028,0.00005243,0.00031416,0.00045420,0.00071223
 ,0.00042445,0.00013494,-0.00011523,-0.00058793,-0.00194017,0.00064019,
 -0.20252665,0.11046599,0.07923198,0.00036744,-0.00009439,-0.00214273,0
 .00008202,0.00055390,0.00012921,-0.00001450,-0.00075420,0.00081217,-0.
 00001419,0.00002488,0.00003706,0.00001447,0.00022819,0.00007516,0.0000
 2138,-0.00001794,0.00006821,0.00000317,-0.00002889,0.00004905,-0.00000
 451,-0.00002806,-0.00004890,-0.00000080,0.00000950,-0.00000396,0.21619
 384,-0.00050720,-0.00001153,-0.00024219,-0.00003665,-0.00024925,0.0009
 1130,-0.00001009,-0.00005114,0.00007639,0.00005919,0.00017999,0.000579
 56,0.00009372,0.00008343,0.00005988,-0.00570784,0.00258139,0.00417292,
 0.11086003,-0.12542767,-0.06014686,0.00011074,0.00047842,0.00020597,-0
 .00018400,0.00001354,-0.00040798,0.00000867,0.00001675,-0.00024431,0.0
 0001048,-0.00001378,-0.00002220,-0.00002692,-0.00000225,0.00028943,-0.
 00004571,0.00000195,-0.00006251,0.00003836,-0.00000233,-0.00004191,0.0
 0000300,0.00004469,-0.00009418,0.00001412,-0.00000964,0.00001978,-0.12
 138846,0.13303648,-0.00011389,-0.00010597,-0.00031828,0.00135127,0.001
 05230,-0.00000841,-0.00002813,0.00005409,-0.00037184,-0.00164776,0.000
 25814,-0.00522510,0.00005472,-0.00032649,-0.00006318,0.02580806,-0.017
 42448,-0.01378909,0.07813524,-0.05879771,-0.08985483,0.00159324,0.0006
 1215,0.00148928,-0.00101427,-0.00042977,-0.00013199,0.00008214,0.00050
 147,0.00015745,-0.00002053,-0.00004545,0.00000589,0.00005185,-0.000196
 12,0.00064316,-0.00015869,0.00000689,-0.00016295,0.00001580,0.00002098
 ,-0.00015138,0.00000428,0.00013740,-0.00016887,0.00002509,-0.00002748,
 0.00001244,-0.08755447,0.06206219,0.09924647,0.00025880,-0.00003906,0.
 00011934,0.00020582,0.00057696,-0.00042757,-0.00001421,-0.00001965,-0.
 00004047,0.00060448,0.00003772,0.00200937,0.00022136,-0.00042241,-0.00
 017519,0.00180154,0.00204459,0.00136862,-0.25374665,-0.06973175,-0.099
 05279,0.00037058,-0.00049968,-0.00005422,0.00036827,0.00000543,0.00019
 897,-0.00001724,-0.00010506,0.00017860,0.00001212,0.00001207,-0.000013
 45,-0.00001215,-0.00018558,0.00016697,-0.00001701,0.00002424,-0.000083
 27,0.00006370,0.00000518,-0.00010295,0.00000195,0.00007132,-0.00003391
 ,0.00000072,-0.00001280,0.00001172,-0.01905646,-0.00841719,-0.01003769
 ,0.27231140,0.00043788,0.00001221,-0.00026123,-0.00003425,-0.00012984,
 -0.00014241,-0.00000814,-0.00002527,-0.00001255,0.00001174,0.00008890,
 0.00001097,0.00011387,0.00025653,-0.00027239,0.00540764,0.00003105,0.0
 0381158,-0.07025423,-0.07133829,-0.03616703,-0.00023596,0.00082910,0.0
 0065295,-0.00013686,-0.00012319,0.00001264,0.00001811,0.00010610,0.000
 87795,0.00000127,-0.00012496,0.00007419,0.00001240,0.00001532,0.000267
 71,-0.00004002,-0.00001018,-0.00003410,0.00004079,-0.00000168,-0.00004
 963,0.00000302,0.00003133,-0.00008543,0.00001015,-0.00000492,0.0000110
 4,0.01584413,0.00585337,0.00918458,0.07722613,0.07278977,0.00030616,-0
 .00008212,-0.00013117,-0.00003556,0.00027684,0.00002497,0.00001288,-0.
 00002780,0.00001404,-0.00196121,0.00039104,0.00171212,0.00116794,-0.00
 028997,-0.00017817,-0.02951502,-0.00961322,-0.01386421,-0.09612067,-0.
 03458169,-0.09587253,0.00198536,0.00039297,-0.00614205,-0.00002095,-0.
 00020752,-0.00003872,-0.00171531,0.00070082,0.00005313,0.00006336,0.00
 005436,-0.00042152,-0.00008517,-0.00014123,0.00047702,0.00003023,0.000
 01767,-0.00011638,0.00015119,-0.00000186,-0.00012317,0.00000540,0.0001
 0317,-0.00012674,0.00000862,-0.00002557,0.00001762,0.01147078,0.005656
 42,0.00584514,0.10691749,0.03601369,0.10580853,0.00017370,0.00108210,-
 0.00004437,0.00063207,0.00010337,-0.00022339,-0.00008954,0.00013818,-0
 .00000257,-0.00010210,-0.00014637,0.00009716,-0.00001621,0.00001132,-0
 .00006727,0.00017022,0.00015428,0.00004934,0.00001448,0.00000697,-0.00
 002114,-0.00015841,-0.00011591,-0.00019649,0.00000850,-0.00001476,-0.0
 0004218,-0.00049985,0.00019963,0.00007636,-0.00001857,0.00005305,0.000
 00208,0.00287601,-0.00397313,-0.00049622,0.00294688,0.00240385,0.00035
 878,-0.00170771,0.00135496,0.00082578,-0.32338553,-0.13056075,-0.10797
 171,-0.01731909,-0.01690340,-0.01355819,-0.00000583,-0.00001035,-0.000
 01617,-0.00001175,-0.00001079,-0.00002215,0.33649652,0.00187926,0.0004
 8836,-0.00002621,-0.00015963,0.00016886,0.00041405,0.00022067,-0.00020
 104,0.00015211,0.00020763,-0.00010798,0.00021745,-0.00003316,0.0000174
 3,0.00000620,0.00025321,-0.00012979,0.00002561,0.00004389,0.00009029,-
 0.00000320,-0.00007283,-0.00007939,-0.00036933,0.00001778,-0.00001436,
 -0.00004489,-0.00032090,0.00038447,0.00008774,0.00003175,-0.00005802,-
 0.00007949,-0.03125084,-0.01100240,-0.01394740,-0.00267779,-0.00781382
 ,0.00044711,0.00337050,0.00288307,0.00180556,-0.13474758,-0.13411149,-
 0.06322269,0.01703268,0.01152310,0.00830809,0.00000509,-0.00000682,-0.
 00003168,-0.00001635,-0.00000668,-0.00001945,0.14622392,0.13797172,-0.
 00095978,-0.00034048,-0.00032242,0.00001456,-0.00002050,-0.00029991,-0
 .00020806,0.00023787,0.00011938,-0.00018215,-0.00010219,-0.00032833,0.
 00001221,0.00000346,-0.00001873,-0.00019381,0.00016681,-0.00009343,-0.
 00002881,-0.00007213,-0.00000441,0.00011138,0.00001269,0.00025550,-0.0
 0001298,0.00001600,0.00001873,0.00033781,-0.00002812,-0.00016805,-0.00
 001372,-0.00005796,0.00009890,0.00517786,0.01267995,-0.00169127,0.0009
 6111,0.00114142,0.00371764,0.00197857,-0.00045466,-0.00194976,-0.14107
 919,-0.08669258,-0.06295963,0.01277513,0.00716457,0.00033478,-0.000000
 32,0.00001385,0.00001948,0.00001185,0.00001714,0.00000987,0.12129429,0
 .06632699,0.06321772,0.00119851,-0.00000489,-0.00015411,-0.00061453,0.
 00061700,-0.00088217,-0.00001312,-0.00007121,0.00002166,-0.00030719,0.
 00039240,0.00185331,-0.00007264,-0.00045876,-0.00000813,-0.00023551,-0
 .00059245,0.00095962,-0.05242841,-0.03891349,0.00826838,-0.00028602,-0
 .00018038,-0.00212160,-0.00022480,0.00013152,-0.00000312,-0.00068604,-
 0.00033421,0.00134783,-0.00001274,0.00004313,0.00000649,0.00011613,-0.
 00007638,0.00008647,-0.00004851,0.00000114,-0.00000689,-0.00002285,0.0
 0002444,-0.00001112,-0.00002498,0.00001048,-0.00001036,0.00000075,0.00
 000608,-0.00000533,0.00456618,0.02513611,-0.00653009,-0.00334527,-0.02
 840689,0.00735663,-0.00000379,-0.00000731,0.00000405,0.05244483,0.0000
 5780,-0.00008528,-0.00040576,-0.00002660,0.00007738,0.00048803,0.00001
 076,0.00002427,0.00004127,0.00078428,0.00002106,-0.00024462,0.00008011
 ,-0.00024719,0.00005274,-0.00009366,0.00024639,0.00248104,-0.03885601,
 -0.29676607,0.05781852,-0.00073684,0.00062415,-0.00032384,0.00004251,-
 0.00046907,0.00014714,0.00002245,0.00026744,0.00062063,-0.00000906,0.0
 0000423,0.00004408,-0.00000547,-0.00012793,0.00002925,0.00000324,0.000
 02955,0.00002248,0.00001280,0.00002927,0.00001443,-0.00000050,-0.00000
 177,0.00002729,-0.00000435,0.00000426,-0.00001179,-0.00341485,-0.01651
 560,0.00349496,-0.00055410,-0.00824866,0.00138345,0.00000383,0.0000044
 9,-0.00001213,0.04268367,0.32112907,0.00014108,0.00012756,-0.00072923,
 -0.00000353,-0.00152768,-0.00042857,0.00001998,0.00009656,-0.00012581,
 -0.00116499,-0.00036244,-0.00129317,0.00029421,0.00062623,0.00005742,0
 .00547180,0.03302254,-0.01080110,0.00883062,0.06155190,-0.05944698,0.0
 0100231,-0.00066105,-0.00035919,-0.00044620,0.00063694,0.00009855,0.00
 009724,-0.00140069,-0.00010538,-0.00002634,0.00010848,-0.00005424,-0.0
 0000043,0.00002506,0.00109380,-0.00016785,-0.00002437,-0.00024476,0.00
 014731,-0.00002216,-0.00023861,0.00000501,0.00025647,-0.00036909,0.000
 04108,-0.00004437,0.00004327,-0.00306645,-0.01278554,0.00282662,-0.000
 96142,-0.01390968,0.00305220,-0.00004194,-0.00004658,0.00004392,-0.010
 17151,-0.06566717,0.06698036\\-0.00000710,-0.00000295,-0.00000653,0.00
 000147,0.00000330,0.00000885,0.00000046,-0.00000223,-0.00000076,0.0000
 0138,0.00000178,-0.00000617,0.00000015,0.00000018,0.00000065,-0.000000
 24,0.00000046,-0.00000037,-0.00000169,-0.00000021,0.00000014,0.0000046
 3,-0.00000062,0.00000498,-0.00000112,-0.00000002,-0.00000060,-0.000000
 99,-0.00000412,0.00000060,0.00000188,0.00000050,-0.00000157,0.00000402
 ,0.00000962,0.00000428,-0.00000941,-0.00000245,-0.00000088,0.00000323,
 -0.00000500,-0.00000052,0.00000497,0.00000103,-0.00000437,0.00000158,-
 0.00000067,0.00000048,0.00000002,0.00000030,-0.00000045,-0.00000006,-0
 .00000016,0.00000009,-0.00000337,0.00000124,0.00000211,0.00000017,0.00
 000002,0.00000006\\\@
 The archive entry for this job was punched.


 I HAVE NOT FAILED, I HAVE ONLY DISCOVERED 10,000
 WAYS THAT DIDN'T WORK.  -- THOMAS A. EDISON
 Job cpu time:       0 days  0 hours 47 minutes 49.7 seconds.
 Elapsed time:       0 days  0 hours  3 minutes 22.4 seconds.
 File lengths (MBytes):  RWF=    127 Int=      0 D2E=      0 Chk=      6 Scr=      1
 Normal termination of Gaussian 16 at Fri May 20 19:47:32 2022.
