 Entering Gaussian System, Link 0=g16
 AtFile(1): /home/561/yj5695/Basis/6-31pGd.gbs
 Initial command:
 /apps/gaussian/g16c01/g16/l1.exe "/jobfs/40763998.gadi-pbs/Gau-2667089.inp" -scrdir="/jobfs/40763998.gadi-pbs/"
 Entering Link 1 = /apps/gaussian/g16c01/g16/l1.exe PID=   2667090.
  
 Copyright (c) 1988-2019, Gaussian, Inc.  All Rights Reserved.
  
 This is part of the Gaussian(R) 16 program.  It is based on
 the Gaussian(R) 09 system (copyright 2009, Gaussian, Inc.),
 the Gaussian(R) 03 system (copyright 2003, Gaussian, Inc.),
 the Gaussian(R) 98 system (copyright 1998, Gaussian, Inc.),
 the Gaussian(R) 94 system (copyright 1995, Gaussian, Inc.),
 the Gaussian 92(TM) system (copyright 1992, Gaussian, Inc.),
 the Gaussian 90(TM) system (copyright 1990, Gaussian, Inc.),
 the Gaussian 88(TM) system (copyright 1988, Gaussian, Inc.),
 the Gaussian 86(TM) system (copyright 1986, Carnegie Mellon
 University), and the Gaussian 82(TM) system (copyright 1983,
 Carnegie Mellon University). Gaussian is a federally registered
 trademark of Gaussian, Inc.
  
 This software contains proprietary and confidential information,
 including trade secrets, belonging to Gaussian, Inc.
  
 This software is provided under written license and may be
 used, copied, transmitted, or stored only in accord with that
 written license.
  
 The following legend is applicable only to US Government
 contracts under FAR:
  
                    RESTRICTED RIGHTS LEGEND
  
 Use, reproduction and disclosure by the US Government is
 subject to restrictions as set forth in subparagraphs (a)
 and (c) of the Commercial Computer Software - Restricted
 Rights clause in FAR 52.227-19.
  
 Gaussian, Inc.
 340 Quinnipiac St., Bldg. 40, Wallingford CT 06492
  
  
 ---------------------------------------------------------------
 Warning -- This program may not be used in any manner that
 competes with the business of Gaussian, Inc. or will provide
 assistance to any competitor of Gaussian, Inc.  The licensee
 of this program is prohibited from giving any competitor of
 Gaussian, Inc. access to this program.  By using this program,
 the user acknowledges that Gaussian, Inc. is engaged in the
 business of creating and licensing software in the field of
 computational chemistry and represents and warrants to the
 licensee that it is not a competitor of Gaussian, Inc. and that
 it will not use this program in any manner prohibited above.
 ---------------------------------------------------------------
  

 Cite this work as:
 Gaussian 16, Revision C.01,
 M. J. Frisch, G. W. Trucks, H. B. Schlegel, G. E. Scuseria, 
 M. A. Robb, J. R. Cheeseman, G. Scalmani, V. Barone, 
 G. A. Petersson, H. Nakatsuji, X. Li, M. Caricato, A. V. Marenich, 
 J. Bloino, B. G. Janesko, R. Gomperts, B. Mennucci, H. P. Hratchian, 
 J. V. Ortiz, A. F. Izmaylov, J. L. Sonnenberg, D. Williams-Young, 
 F. Ding, F. Lipparini, F. Egidi, J. Goings, B. Peng, A. Petrone, 
 T. Henderson, D. Ranasinghe, V. G. Zakrzewski, J. Gao, N. Rega, 
 G. Zheng, W. Liang, M. Hada, M. Ehara, K. Toyota, R. Fukuda, 
 J. Hasegawa, M. Ishida, T. Nakajima, Y. Honda, O. Kitao, H. Nakai, 
 T. Vreven, K. Throssell, J. A. Montgomery, Jr., J. E. Peralta, 
 F. Ogliaro, M. J. Bearpark, J. J. Heyd, E. N. Brothers, K. N. Kudin, 
 V. N. Staroverov, T. A. Keith, R. Kobayashi, J. Normand, 
 K. Raghavachari, A. P. Rendell, J. C. Burant, S. S. Iyengar, 
 J. Tomasi, M. Cossi, J. M. Millam, M. Klene, C. Adamo, R. Cammi, 
 J. W. Ochterski, R. L. Martin, K. Morokuma, O. Farkas, 
 J. B. Foresman, and D. J. Fox, Gaussian, Inc., Wallingford CT, 2019.
 
 ******************************************
 Gaussian 16:  ES64L-G16RevC.01  3-Jul-2019
                20-May-2022 
 ******************************************
 %nproc=16
 Will use up to   16 processors via shared memory.
 %mem=20gb
 --------------------------------------------------
 #M062X/gen 6D INT(grid=ultrafine) OPT Freq=noraman
 --------------------------------------------------
 1/18=20,19=15,26=4,38=1/1,3;
 2/9=110,12=2,17=6,18=5,40=1/2;
 3/5=7,8=2,11=2,25=1,30=1,71=1,74=-55,75=-5/1,2,3;
 4//1;
 5/5=2,38=5/2;
 6/7=2,8=2,9=2,10=2,28=1/1;
 7//1,2,3,16;
 1/18=20,19=15,26=4/3(2);
 2/9=110/2;
 99//99;
 2/9=110/2;
 3/5=7,6=1,8=2,11=2,25=1,30=1,71=1,74=-55,75=-5,82=7/1,2,3;
 4/5=5,16=3,69=1/1;
 5/5=2,38=5/2;
 7//1,2,3,16;
 1/18=20,19=15,26=4/3(-5);
 2/9=110/2;
 6/7=2,8=2,9=2,10=2,19=2,28=1/1;
 99/9=1/99;
 ------------
 HA.6.a3.freq
 ------------
 Symbolic Z-matrix:
 Charge =  0 Multiplicity = 1
 C                    -1.22036   0.50986  -0.85172 
 C                    -2.38021   1.04038  -1.41551 
 H                    -3.24076   1.2777   -0.79798 
 C                    -2.42501   1.25461  -2.78902 
 H                    -3.3073    1.6585   -3.27373 
 C                    -1.30319   0.93192  -3.53882 
 C                    -0.14124   0.40622  -2.9927 
 H                     0.70277   0.16882  -3.63129 
 C                    -0.09978   0.19319  -1.61887 
 H                     0.79156  -0.22031  -1.15762 
 S                    -1.14513   0.28974   0.90863 
 O                    -2.51256   0.13374   1.40425 
 O                    -0.15053  -0.7444    1.19352 
 N                    -0.56787   1.67811   1.59354 
 H                    -1.18759   2.47142   1.4153 
 H                     0.38066   1.88842   1.27539 
 F                    -1.34576   1.13704  -4.87033 
 

 GradGradGradGradGradGradGradGradGradGradGradGradGradGradGradGradGradGrad
 Berny optimization.
 Initialization pass.
                           ----------------------------
                           !    Initial Parameters    !
                           ! (Angstroms and Degrees)  !
 --------------------------                            --------------------------
 ! Name  Definition              Value          Derivative Info.                !
 --------------------------------------------------------------------------------
 ! R1    R(1,2)                  1.3945         estimate D2E/DX2                !
 ! R2    R(1,9)                  1.3945         estimate D2E/DX2                !
 ! R3    R(1,11)                 1.7756         estimate D2E/DX2                !
 ! R4    R(2,3)                  1.0855         estimate D2E/DX2                !
 ! R5    R(2,4)                  1.3908         estimate D2E/DX2                !
 ! R6    R(4,5)                  1.0847         estimate D2E/DX2                !
 ! R7    R(4,6)                  1.3874         estimate D2E/DX2                !
 ! R8    R(6,7)                  1.3874         estimate D2E/DX2                !
 ! R9    R(6,17)                 1.3479         estimate D2E/DX2                !
 ! R10   R(7,8)                  1.0847         estimate D2E/DX2                !
 ! R11   R(7,9)                  1.3909         estimate D2E/DX2                !
 ! R12   R(9,10)                 1.0855         estimate D2E/DX2                !
 ! R13   R(11,12)                1.4628         estimate D2E/DX2                !
 ! R14   R(11,13)                1.4628         estimate D2E/DX2                !
 ! R15   R(11,14)                1.6522         estimate D2E/DX2                !
 ! R16   R(14,15)                1.0223         estimate D2E/DX2                !
 ! R17   R(14,16)                1.0223         estimate D2E/DX2                !
 ! A1    A(2,1,9)              122.1651         estimate D2E/DX2                !
 ! A2    A(2,1,11)             118.8957         estimate D2E/DX2                !
 ! A3    A(9,1,11)             118.895          estimate D2E/DX2                !
 ! A4    A(1,2,3)              120.8355         estimate D2E/DX2                !
 ! A5    A(1,2,4)              118.9899         estimate D2E/DX2                !
 ! A6    A(3,2,4)              120.1732         estimate D2E/DX2                !
 ! A7    A(2,4,5)              121.6584         estimate D2E/DX2                !
 ! A8    A(2,4,6)              118.1538         estimate D2E/DX2                !
 ! A9    A(5,4,6)              120.1874         estimate D2E/DX2                !
 ! A10   A(4,6,7)              123.5467         estimate D2E/DX2                !
 ! A11   A(4,6,17)             118.2255         estimate D2E/DX2                !
 ! A12   A(7,6,17)             118.2275         estimate D2E/DX2                !
 ! A13   A(6,7,8)              120.1913         estimate D2E/DX2                !
 ! A14   A(6,7,9)              118.1528         estimate D2E/DX2                !
 ! A15   A(8,7,9)              121.6554         estimate D2E/DX2                !
 ! A16   A(1,9,7)              118.9907         estimate D2E/DX2                !
 ! A17   A(1,9,10)             120.838          estimate D2E/DX2                !
 ! A18   A(7,9,10)             120.1698         estimate D2E/DX2                !
 ! A19   A(1,11,12)            108.0297         estimate D2E/DX2                !
 ! A20   A(1,11,13)            108.0303         estimate D2E/DX2                !
 ! A21   A(1,11,14)            108.7595         estimate D2E/DX2                !
 ! A22   A(12,11,13)           119.6174         estimate D2E/DX2                !
 ! A23   A(12,11,14)           106.0071         estimate D2E/DX2                !
 ! A24   A(13,11,14)           106.0076         estimate D2E/DX2                !
 ! A25   A(11,14,15)           111.5918         estimate D2E/DX2                !
 ! A26   A(11,14,16)           111.593          estimate D2E/DX2                !
 ! A27   A(15,14,16)           110.3979         estimate D2E/DX2                !
 ! D1    D(9,1,2,3)            179.9072         estimate D2E/DX2                !
 ! D2    D(9,1,2,4)              0.3526         estimate D2E/DX2                !
 ! D3    D(11,1,2,3)            -2.5356         estimate D2E/DX2                !
 ! D4    D(11,1,2,4)           177.9098         estimate D2E/DX2                !
 ! D5    D(2,1,9,7)             -0.351          estimate D2E/DX2                !
 ! D6    D(2,1,9,10)          -179.908          estimate D2E/DX2                !
 ! D7    D(11,1,9,7)          -177.9082         estimate D2E/DX2                !
 ! D8    D(11,1,9,10)            2.5348         estimate D2E/DX2                !
 ! D9    D(2,1,11,12)           25.8015         estimate D2E/DX2                !
 ! D10   D(2,1,11,13)          156.5331         estimate D2E/DX2                !
 ! D11   D(2,1,11,14)          -88.8323         estimate D2E/DX2                !
 ! D12   D(9,1,11,12)         -156.5604         estimate D2E/DX2                !
 ! D13   D(9,1,11,13)          -25.8288         estimate D2E/DX2                !
 ! D14   D(9,1,11,14)           88.8058         estimate D2E/DX2                !
 ! D15   D(1,2,4,5)            179.5595         estimate D2E/DX2                !
 ! D16   D(1,2,4,6)             -0.2079         estimate D2E/DX2                !
 ! D17   D(3,2,4,5)              0.0019         estimate D2E/DX2                !
 ! D18   D(3,2,4,6)           -179.7655         estimate D2E/DX2                !
 ! D19   D(2,4,6,7)              0.0774         estimate D2E/DX2                !
 ! D20   D(2,4,6,17)           179.9007         estimate D2E/DX2                !
 ! D21   D(5,4,6,7)           -179.6935         estimate D2E/DX2                !
 ! D22   D(5,4,6,17)             0.1297         estimate D2E/DX2                !
 ! D23   D(4,6,7,8)            179.695          estimate D2E/DX2                !
 ! D24   D(4,6,7,9)             -0.0758         estimate D2E/DX2                !
 ! D25   D(17,6,7,8)            -0.1282         estimate D2E/DX2                !
 ! D26   D(17,6,7,9)          -179.8991         estimate D2E/DX2                !
 ! D27   D(6,7,9,1)              0.2048         estimate D2E/DX2                !
 ! D28   D(6,7,9,10)           179.7648         estimate D2E/DX2                !
 ! D29   D(8,7,9,1)           -179.5625         estimate D2E/DX2                !
 ! D30   D(8,7,9,10)            -0.0025         estimate D2E/DX2                !
 ! D31   D(1,11,14,15)          62.0201         estimate D2E/DX2                !
 ! D32   D(1,11,14,16)         -62.0197         estimate D2E/DX2                !
 ! D33   D(12,11,14,15)        -53.9242         estimate D2E/DX2                !
 ! D34   D(12,11,14,16)       -177.964          estimate D2E/DX2                !
 ! D35   D(13,11,14,15)        177.9651         estimate D2E/DX2                !
 ! D36   D(13,11,14,16)         53.9253         estimate D2E/DX2                !
 --------------------------------------------------------------------------------
 Trust Radius=3.00D-01 FncErr=1.00D-07 GrdErr=1.00D-06 EigMax=2.50D+02 EigMin=1.00D-04
 Number of steps in this run=     90 maximum allowed number of steps=    102.
 GradGradGradGradGradGradGradGradGradGradGradGradGradGradGradGradGradGrad

                          Input orientation:                          
 ---------------------------------------------------------------------
 Center     Atomic      Atomic             Coordinates (Angstroms)
 Number     Number       Type             X           Y           Z
 ---------------------------------------------------------------------
      1          6           0       -1.220359    0.509860   -0.851720
      2          6           0       -2.380211    1.040382   -1.415510
      3          1           0       -3.240758    1.277696   -0.797980
      4          6           0       -2.425010    1.254615   -2.789024
      5          1           0       -3.307305    1.658502   -3.273726
      6          6           0       -1.303194    0.931918   -3.538821
      7          6           0       -0.141237    0.406218   -2.992700
      8          1           0        0.702771    0.168819   -3.631287
      9          6           0       -0.099776    0.193186   -1.618875
     10          1           0        0.791557   -0.220312   -1.157617
     11         16           0       -1.145133    0.289739    0.908625
     12          8           0       -2.512560    0.133740    1.404247
     13          8           0       -0.150535   -0.744404    1.193515
     14          7           0       -0.567872    1.678113    1.593542
     15          1           0       -1.187588    2.471420    1.415302
     16          1           0        0.380659    1.888417    1.275388
     17          9           0       -1.345762    1.137045   -4.870330
 ---------------------------------------------------------------------
                    Distance matrix (angstroms):
                    1          2          3          4          5
     1  C    0.000000
     2  C    1.394478   0.000000
     3  H    2.162053   1.085450   0.000000
     4  C    2.399790   1.390843   2.151798   0.000000
     5  H    3.397180   2.166689   2.505744   1.084668   0.000000
     6  C    2.721307   2.383313   3.374304   1.387371   2.148175
     7  C    2.399801   2.811174   3.896576   2.444766   3.416310
     8  H    3.397166   3.895391   4.980829   3.416339   4.292751
     9  C    1.394459   2.441205   3.422835   2.811155   3.895372
    10  H    2.162066   3.422859   4.316588   3.896562   4.980815
    11  S    1.775649   2.736875   2.877535   4.030097   4.903117
    12  O    2.626906   2.964885   2.586255   4.341376   4.983969
    13  O    2.626916   3.868324   4.195763   5.002992   5.974562
    14  N    2.787447   3.570107   3.608883   4.778619   5.585264
    15  H    2.998030   3.388763   3.246399   4.548427   5.209705
    16  H    2.998044   3.947467   4.217404   4.979250   5.860749
    17  F    4.069190   3.607660   4.493865   2.347430   2.582385
                    6          7          8          9         10
     6  C    0.000000
     7  C    1.387355   0.000000
     8  H    2.148201   1.084666   0.000000
     9  C    2.383304   1.390863   2.166675   0.000000
    10  H    3.374278   2.151784   2.505663   1.085455   0.000000
    11  S    4.496350   4.030101   4.903078   2.736850   2.877547
    12  O    5.151076   5.003055   5.974628   3.868375   4.195913
    13  O    5.151086   4.341477   4.984057   2.964994   2.586510
    14  N    5.238192   4.778425   5.584921   3.569837   3.608454
    15  H    5.189102   4.978996   5.860332   3.947140   4.216912
    16  H    5.189110   4.548172   5.209245   3.388419   3.245780
    17  F    1.347888   2.347441   2.582475   3.607674   4.493860
                   11         12         13         14         15
    11  S    0.000000
    12  O    1.462816   0.000000
    13  O    1.462819   2.528776   0.000000
    14  N    1.652248   2.490528   2.490538   0.000000
    15  H    2.240147   2.687084   3.386177   1.022328   0.000000
    16  H    2.240163   3.386180   2.687121   1.022331   1.678948
    17  F    5.844185   6.460522   6.460544   6.532955   6.427655
                   16         17
    16  H    0.000000
    17  F    6.427669   0.000000
 Stoichiometry    C6H6FNO2S
 Framework group  C1[X(C6H6FNO2S)]
 Deg. of freedom    45
 Full point group                 C1      NOp   1
 Largest Abelian subgroup         C1      NOp   1
 Largest concise Abelian subgroup C1      NOp   1
                         Standard orientation:                         
 ---------------------------------------------------------------------
 Center     Atomic      Atomic             Coordinates (Angstroms)
 Number     Number       Type             X           Y           Z
 ---------------------------------------------------------------------
      1          6           0       -0.077364    0.000021   -0.099288
      2          6           0        0.596131    1.220623   -0.066063
      3          1           0        0.050107    2.158308   -0.094470
      4          6           0        1.985635    1.222375   -0.005066
      5          1           0        2.553408    2.146342    0.015523
      6          6           0        2.641127   -0.000023    0.024482
      7          6           0        1.985614   -1.222391   -0.005085
      8          1           0        2.553299   -2.146410    0.015510
      9          6           0        0.596092   -1.220582   -0.066117
     10          1           0        0.050083   -2.158280   -0.094550
     11         16           0       -1.852886    0.000033   -0.120469
     12          8           0       -2.298690    1.264576   -0.705296
     13          8           0       -2.298713   -1.264200   -0.705953
     14          7           0       -2.402868   -0.000360    1.437557
     15          1           0       -2.107545    0.838989    1.940977
     16          1           0       -2.107555   -0.839959    1.940572
     17          9           0        3.987807   -0.000016    0.081540
 ---------------------------------------------------------------------
 Rotational constants (GHZ):           2.5785538           0.5469603           0.4985514
 General basis read from cards:  (6D, 7F)
 There are   225 symmetry adapted cartesian basis functions of A   symmetry.
 There are   225 symmetry adapted basis functions of A   symmetry.
   225 basis functions,   400 primitive gaussians,   225 cartesian basis functions
    45 alpha electrons       45 beta electrons
       nuclear repulsion energy       726.4741687363 Hartrees.
 NAtoms=   17 NActive=   17 NUniq=   17 SFac= 1.00D+00 NAtFMM=   60 NAOKFM=F Big=F
 Integral buffers will be    131072 words long.
 Raffenetti 2 integral format.
 Two-electron integral symmetry is turned on.
 One-electron integrals computed using PRISM.
 NBasis=   225 RedAO= T EigKep=  3.41D-06  NBF=   225
 NBsUse=   225 1.00D-06 EigRej= -1.00D+00 NBFU=   225
 ExpMin= 4.05D-02 ExpMax= 2.19D+04 ExpMxC= 3.30D+03 IAcc=3 IRadAn=         5 AccDes= 0.00D+00
 Harris functional with IExCor= 1009 and IRadAn=       5 diagonalized for initial guess.
 HarFok:  IExCor= 1009 AccDes= 0.00D+00 IRadAn=         5 IDoV= 1 UseB2=F ITyADJ=14
 ICtDFT=  3500011 ScaDFX=  1.000000  1.000000  1.000000  1.000000
 FoFCou: FMM=F IPFlag=           0 FMFlag=      100000 FMFlg1=           0
         NFxFlg=           0 DoJE=T BraDBF=F KetDBF=T FulRan=T
         wScrn=  0.000000 ICntrl=       500 IOpCl=  0 I1Cent=   200000004 NGrid=           0
         NMat0=    1 NMatS0=      1 NMatT0=    0 NMatD0=    1 NMtDS0=    0 NMtDT0=    0
 Petite list used in FoFCou.
 Requested convergence on RMS density matrix=1.00D-08 within 128 cycles.
 Requested convergence on MAX density matrix=1.00D-06.
 Requested convergence on             energy=1.00D-06.
 No special actions if energy rises.
 SCF Done:  E(RM062X) =  -935.178591300     A.U. after   15 cycles
            NFock= 15  Conv=0.36D-08     -V/T= 2.0063

 **********************************************************************

            Population analysis using the SCF Density.

 **********************************************************************

 Orbital symmetries:
       Occupied  (A) (A) (A) (A) (A) (A) (A) (A) (A) (A) (A) (A)
                 (A) (A) (A) (A) (A) (A) (A) (A) (A) (A) (A) (A)
                 (A) (A) (A) (A) (A) (A) (A) (A) (A) (A) (A) (A)
                 (A) (A) (A) (A) (A) (A) (A) (A) (A)
       Virtual   (A) (A) (A) (A) (A) (A) (A) (A) (A) (A) (A) (A)
                 (A) (A) (A) (A) (A) (A) (A) (A) (A) (A) (A) (A)
                 (A) (A) (A) (A) (A) (A) (A) (A) (A) (A) (A) (A)
                 (A) (A) (A) (A) (A) (A) (A) (A) (A) (A) (A) (A)
                 (A) (A) (A) (A) (A) (A) (A) (A) (A) (A) (A) (A)
                 (A) (A) (A) (A) (A) (A) (A) (A) (A) (A) (A) (A)
                 (A) (A) (A) (A) (A) (A) (A) (A) (A) (A) (A) (A)
                 (A) (A) (A) (A) (A) (A) (A) (A) (A) (A) (A) (A)
                 (A) (A) (A) (A) (A) (A) (A) (A) (A) (A) (A) (A)
                 (A) (A) (A) (A) (A) (A) (A) (A) (A) (A) (A) (A)
                 (A) (A) (A) (A) (A) (A) (A) (A) (A) (A) (A) (A)
                 (A) (A) (A) (A) (A) (A) (A) (A) (A) (A) (A) (A)
                 (A) (A) (A) (A) (A) (A) (A) (A) (A) (A) (A) (A)
                 (A) (A) (A) (A) (A) (A) (A) (A) (A) (A) (A) (A)
                 (A) (A) (A) (A) (A) (A) (A) (A) (A) (A) (A) (A)
 The electronic state is 1-A.
 Alpha  occ. eigenvalues --  -90.17526 -25.30307 -19.64785 -19.64784 -14.81747
 Alpha  occ. eigenvalues --  -10.67640 -10.61355 -10.60545 -10.60541 -10.59643
 Alpha  occ. eigenvalues --  -10.59642  -8.48499  -6.40717  -6.40653  -6.40582
 Alpha  occ. eigenvalues --   -1.39726  -1.24933  -1.13117  -1.04250  -1.01199
 Alpha  occ. eigenvalues --   -0.89950  -0.89594  -0.78018  -0.75052  -0.71358
 Alpha  occ. eigenvalues --   -0.66383  -0.64447  -0.63003  -0.60809  -0.59065
 Alpha  occ. eigenvalues --   -0.58330  -0.55874  -0.53986  -0.53163  -0.51045
 Alpha  occ. eigenvalues --   -0.50951  -0.47960  -0.44835  -0.42267  -0.40872
 Alpha  occ. eigenvalues --   -0.40368  -0.38479  -0.38411  -0.35316  -0.33591
 Alpha virt. eigenvalues --   -0.02598  -0.02230  -0.00571   0.01760   0.02181
 Alpha virt. eigenvalues --    0.03066   0.04655   0.04901   0.05909   0.06976
 Alpha virt. eigenvalues --    0.07254   0.07561   0.07921   0.09072   0.09775
 Alpha virt. eigenvalues --    0.10230   0.10857   0.12002   0.12573   0.12758
 Alpha virt. eigenvalues --    0.13200   0.14556   0.14729   0.14949   0.15248
 Alpha virt. eigenvalues --    0.16632   0.16974   0.17414   0.17780   0.18134
 Alpha virt. eigenvalues --    0.19678   0.20515   0.20775   0.21446   0.21843
 Alpha virt. eigenvalues --    0.23269   0.23961   0.24130   0.24497   0.24702
 Alpha virt. eigenvalues --    0.26646   0.27693   0.27891   0.28692   0.29203
 Alpha virt. eigenvalues --    0.31053   0.31320   0.31888   0.32985   0.33786
 Alpha virt. eigenvalues --    0.33975   0.35270   0.35692   0.37767   0.39198
 Alpha virt. eigenvalues --    0.39287   0.40202   0.40599   0.41352   0.44347
 Alpha virt. eigenvalues --    0.46753   0.47181   0.54695   0.55930   0.56610
 Alpha virt. eigenvalues --    0.62022   0.65455   0.67435   0.68519   0.68787
 Alpha virt. eigenvalues --    0.70378   0.73178   0.74369   0.74520   0.75943
 Alpha virt. eigenvalues --    0.76292   0.78942   0.80773   0.82646   0.87286
 Alpha virt. eigenvalues --    0.89074   0.92154   0.94364   0.94785   0.97004
 Alpha virt. eigenvalues --    0.98268   1.00387   1.00849   1.01677   1.03814
 Alpha virt. eigenvalues --    1.07530   1.08732   1.09581   1.10435   1.10436
 Alpha virt. eigenvalues --    1.12235   1.15873   1.15947   1.17715   1.22233
 Alpha virt. eigenvalues --    1.24542   1.26269   1.29075   1.33128   1.34049
 Alpha virt. eigenvalues --    1.36342   1.36463   1.37250   1.38321   1.40720
 Alpha virt. eigenvalues --    1.40722   1.41652   1.46793   1.47617   1.47874
 Alpha virt. eigenvalues --    1.50984   1.53084   1.59343   1.68332   1.68725
 Alpha virt. eigenvalues --    1.69632   1.74555   1.78673   1.78950   1.79545
 Alpha virt. eigenvalues --    1.80047   1.82112   1.83792   1.86101   1.87313
 Alpha virt. eigenvalues --    1.88282   1.90995   1.92125   1.93653   1.96933
 Alpha virt. eigenvalues --    1.99115   2.00950   2.01189   2.03516   2.06652
 Alpha virt. eigenvalues --    2.10704   2.14585   2.14669   2.16326   2.17240
 Alpha virt. eigenvalues --    2.18758   2.23476   2.26197   2.26660   2.28899
 Alpha virt. eigenvalues --    2.31664   2.31884   2.34279   2.43508   2.47955
 Alpha virt. eigenvalues --    2.54482   2.55204   2.63656   2.66363   2.67653
 Alpha virt. eigenvalues --    2.72083   2.76009   2.82584   2.88953   2.91404
 Alpha virt. eigenvalues --    2.95627   3.14353   3.22582   3.41287   3.87465
 Alpha virt. eigenvalues --    4.07246   4.20212   4.23674   4.26265   4.26591
 Alpha virt. eigenvalues --    4.29376   4.38432   4.44386   4.71464   5.95809
          Condensed to atoms (all electrons):
               1          2          3          4          5          6
     1  C   16.677974  -2.350906   0.083665  -1.472786   0.025045  -1.906257
     2  C   -2.350906  19.549954   0.202951  -1.926845  -0.005011   0.416678
     3  H    0.083665   0.202951   0.430000  -0.022312  -0.003267  -0.002359
     4  C   -1.472786  -1.926845  -0.022312  10.485764   0.308462   0.214051
     5  H    0.025045  -0.005011  -0.003267   0.308462   0.450425  -0.012973
     6  C   -1.906257   0.416678  -0.002359   0.214051  -0.012973   6.380149
     7  C   -1.471886  -1.497170  -0.014980   0.076840   0.013695   0.213972
     8  H    0.025050  -0.018428   0.000010   0.013696  -0.000100  -0.012968
     9  C   -2.350234  -8.299312   0.059870  -1.496795  -0.018433   0.415907
    10  H    0.083747   0.059931  -0.000113  -0.014991   0.000010  -0.002363
    11  S   -0.102095   0.116787   0.000320  -0.316511   0.001100  -0.025900
    12  O    0.007876  -0.426949   0.000294  -0.048326   0.000123  -0.015896
    13  O    0.007910   0.229269   0.001094   0.089771   0.000020  -0.015891
    14  N   -0.686797   0.163535   0.001203   0.255644  -0.000020   0.015702
    15  H    0.065015  -0.132970  -0.000030  -0.019989   0.000001  -0.001354
    16  H    0.065028   0.070490   0.000012  -0.005311   0.000000  -0.001353
    17  F   -0.027129  -0.005846  -0.000339  -0.140527  -0.003727   0.300000
               7          8          9         10         11         12
     1  C   -1.471886   0.025050  -2.350234   0.083747  -0.102095   0.007876
     2  C   -1.497170  -0.018428  -8.299312   0.059931   0.116787  -0.426949
     3  H   -0.014980   0.000010   0.059870  -0.000113   0.000320   0.000294
     4  C    0.076840   0.013696  -1.496795  -0.014991  -0.316511  -0.048326
     5  H    0.013695  -0.000100  -0.018433   0.000010   0.001100   0.000123
     6  C    0.213972  -0.012968   0.415907  -0.002363  -0.025900  -0.015896
     7  C   10.486743   0.308458  -1.927970  -0.022360  -0.316727   0.089765
     8  H    0.308458   0.450425  -0.005023  -0.003267   0.001100   0.000020
     9  C   -1.927970  -0.005023  19.549957   0.202853   0.117259   0.229270
    10  H   -0.022360  -0.003267   0.202853   0.430024   0.000341   0.001095
    11  S   -0.316727   0.001100   0.117259   0.000341  15.199826   0.312028
    12  O    0.089765   0.000020   0.229270   0.001095   0.312028   8.716237
    13  O   -0.048461   0.000123  -0.426958   0.000292   0.312191  -0.176938
    14  N    0.255713  -0.000020   0.163415   0.001201  -0.795142  -0.132243
    15  H   -0.005314   0.000000   0.070536   0.000012   0.072971  -0.007382
    16  H   -0.019989   0.000001  -0.132927  -0.000030   0.072964   0.009652
    17  F   -0.140544  -0.003727  -0.005818  -0.000339   0.000843   0.000021
              13         14         15         16         17
     1  C    0.007910  -0.686797   0.065015   0.065028  -0.027129
     2  C    0.229269   0.163535  -0.132970   0.070490  -0.005846
     3  H    0.001094   0.001203  -0.000030   0.000012  -0.000339
     4  C    0.089771   0.255644  -0.019989  -0.005311  -0.140527
     5  H    0.000020  -0.000020   0.000001   0.000000  -0.003727
     6  C   -0.015891   0.015702  -0.001354  -0.001353   0.300000
     7  C   -0.048461   0.255713  -0.005314  -0.019989  -0.140544
     8  H    0.000123  -0.000020   0.000000   0.000001  -0.003727
     9  C   -0.426958   0.163415   0.070536  -0.132927  -0.005818
    10  H    0.000292   0.001201   0.000012  -0.000030  -0.000339
    11  S    0.312191  -0.795142   0.072971   0.072964   0.000843
    12  O   -0.176938  -0.132243  -0.007382   0.009652   0.000021
    13  O    8.716140  -0.132277   0.009651  -0.007378   0.000021
    14  N   -0.132277   8.400782   0.208390   0.208368  -0.000074
    15  H    0.009651   0.208390   0.321465  -0.022105   0.000000
    16  H   -0.007378   0.208368  -0.022105   0.321479   0.000000
    17  F    0.000021  -0.000074   0.000000   0.000000   9.346921
 Mulliken charges:
               1
     1  C   -0.673220
     2  C   -0.146158
     3  H    0.263980
     4  C    0.020166
     5  H    0.244651
     6  C    0.040854
     7  C    0.020213
     8  H    0.244650
     9  C   -0.145598
    10  H    0.263957
    11  S    1.348645
    12  O   -0.558648
    13  O   -0.558578
    14  N   -0.927380
    15  H    0.441105
    16  H    0.441099
    17  F   -0.319738
 Sum of Mulliken charges =  -0.00000
 Mulliken charges with hydrogens summed into heavy atoms:
               1
     1  C   -0.673220
     2  C    0.117823
     4  C    0.264817
     6  C    0.040854
     7  C    0.264863
     9  C    0.118358
    11  S    1.348645
    12  O   -0.558648
    13  O   -0.558578
    14  N   -0.045176
    17  F   -0.319738
 Electronic spatial extent (au):  <R**2>=           2129.4810
 Charge=             -0.0000 electrons
 Dipole moment (field-independent basis, Debye):
    X=              3.5661    Y=             -0.0010    Z=              4.0495  Tot=              5.3959
 Quadrupole moment (field-independent basis, Debye-Ang):
   XX=            -87.9232   YY=            -65.5309   ZZ=            -68.3929
   XY=              0.0023   XZ=             -8.7390   YZ=             -0.0020
 Traceless Quadrupole moment (field-independent basis, Debye-Ang):
   XX=            -13.9742   YY=              8.4181   ZZ=              5.5561
   XY=              0.0023   XZ=             -8.7390   YZ=             -0.0020
 Octapole moment (field-independent basis, Debye-Ang**2):
  XXX=             20.0318  YYY=             -0.0072  ZZZ=             13.6891  XYY=             23.6884
  XXY=             -0.0027  XXZ=             12.5768  XZZ=             -7.1108  YZZ=              0.0015
  YYZ=              8.7222  XYZ=              0.0042
 Hexadecapole moment (field-independent basis, Debye-Ang**3):
 XXXX=          -2221.1228 YYYY=           -405.8409 ZZZZ=           -180.6948 XXXY=              0.0058
 XXXZ=            -12.9251 YYYX=              0.0135 YYYZ=             -0.0061 ZZZX=            -21.6939
 ZZZY=             -0.0027 XXYY=           -391.8399 XXZZ=           -359.9169 YYZZ=           -108.7606
 XXYZ=             -0.0074 YYXZ=            -18.6984 ZZXY=             -0.0039
 N-N= 7.264741687363D+02 E-N=-3.653534325839D+03  KE= 9.293598309993D+02
 Calling FoFJK, ICntrl=      2127 FMM=F ISym2X=0 I1Cent= 0 IOpClX= 0 NMat=1 NMatS=1 NMatT=0.
 ***** Axes restored to original set *****
 -------------------------------------------------------------------
 Center     Atomic                   Forces (Hartrees/Bohr)
 Number     Number              X              Y              Z
 -------------------------------------------------------------------
      1        6           0.001235444    0.003202115    0.000590084
      2        6           0.001045474    0.000378083   -0.001821445
      3        1           0.000423522   -0.001636903    0.001608080
      4        6           0.000175044   -0.000117629    0.001025977
      5        1           0.000596895   -0.000252960   -0.000684440
      6        6          -0.000366740    0.000844317   -0.007535563
      7        6          -0.000039884   -0.000041352    0.001063654
      8        1          -0.000718102    0.000235022   -0.000572320
      9        6          -0.000804967    0.001071874   -0.001673663
     10        1          -0.001130784   -0.001061110    0.001748310
     11       16          -0.010530229   -0.032567047    0.017659436
     12        8           0.009044608    0.008232857   -0.008364790
     13        8          -0.002700613    0.012602645   -0.007318230
     14        7           0.004581575    0.013480765   -0.004843545
     15        1           0.001033823   -0.002507824    0.002580429
     16        1          -0.001997795   -0.001383126    0.002851386
     17        9           0.000152728   -0.000479726    0.003686641
 -------------------------------------------------------------------
 Cartesian Forces:  Max     0.032567047 RMS     0.006692840

 GradGradGradGradGradGradGradGradGradGradGradGradGradGradGradGradGradGrad
 Berny optimization.
 FormGI is forming the generalized inverse of G from B-inverse, IUseBI=4.
 Internal  Forces:  Max     0.012170883 RMS     0.002952685
 Search for a local minimum.
 Step number   1 out of a maximum of   90
 All quantities printed in internal units (Hartrees-Bohrs-Radians)
 Mixed Optimization -- RFO/linear search
 Second derivative matrix not updated -- first step.
 ITU=  0
     Eigenvalues ---    0.00692   0.01603   0.01928   0.02168   0.02185
     Eigenvalues ---    0.02189   0.02209   0.02229   0.02234   0.02246
     Eigenvalues ---    0.02256   0.04617   0.09467   0.10388   0.14312
     Eigenvalues ---    0.15999   0.16000   0.16000   0.16000   0.16000
     Eigenvalues ---    0.16000   0.19826   0.22000   0.23007   0.23994
     Eigenvalues ---    0.24979   0.25000   0.25000   0.28133   0.35343
     Eigenvalues ---    0.35344   0.35436   0.35436   0.42310   0.42780
     Eigenvalues ---    0.42857   0.43968   0.43969   0.46672   0.47171
     Eigenvalues ---    0.47231   0.47688   0.55473   0.90436   0.90437
 RFO step:  Lambda=-3.10730346D-03 EMin= 6.92424138D-03
 Linear search not attempted -- first point.
 Iteration  1 RMS(Cart)=  0.01552181 RMS(Int)=  0.00039879
 Iteration  2 RMS(Cart)=  0.00070421 RMS(Int)=  0.00020069
 Iteration  3 RMS(Cart)=  0.00000019 RMS(Int)=  0.00020069
 Variable       Old X    -DE/DX   Delta X   Delta X   Delta X     New X
                                 (Linear)    (Quad)   (Total)
    R1        2.63518  -0.00107   0.00000  -0.00246  -0.00245   2.63273
    R2        2.63515  -0.00106   0.00000  -0.00244  -0.00243   2.63272
    R3        3.35549   0.00278   0.00000   0.00979   0.00979   3.36528
    R4        2.05120   0.00022   0.00000   0.00062   0.00062   2.05182
    R5        2.62831   0.00151   0.00000   0.00318   0.00318   2.63150
    R6        2.04973  -0.00027   0.00000  -0.00077  -0.00077   2.04896
    R7        2.62175   0.00038   0.00000   0.00096   0.00095   2.62270
    R8        2.62172   0.00038   0.00000   0.00097   0.00096   2.62268
    R9        2.54714  -0.00372   0.00000  -0.00667  -0.00667   2.54047
   R10        2.04972  -0.00027   0.00000  -0.00076  -0.00076   2.04896
   R11        2.62835   0.00150   0.00000   0.00316   0.00316   2.63151
   R12        2.05121   0.00022   0.00000   0.00061   0.00061   2.05183
   R13        2.76432  -0.01217   0.00000  -0.01341  -0.01341   2.75092
   R14        2.76433  -0.01217   0.00000  -0.01341  -0.01341   2.75091
   R15        3.12230   0.00957   0.00000   0.02244   0.02244   3.14474
   R16        1.93192  -0.00302   0.00000  -0.00683  -0.00683   1.92509
   R17        1.93193  -0.00303   0.00000  -0.00683  -0.00683   1.92509
    A1        2.13218  -0.00153   0.00000  -0.00669  -0.00674   2.12544
    A2        2.07512   0.00077   0.00000   0.00383   0.00370   2.07882
    A3        2.07511   0.00078   0.00000   0.00384   0.00371   2.07882
    A4        2.10898  -0.00263   0.00000  -0.01488  -0.01495   2.09402
    A5        2.07677   0.00111   0.00000   0.00422   0.00420   2.08097
    A6        2.09742   0.00151   0.00000   0.01053   0.01045   2.10786
    A7        2.12334   0.00056   0.00000   0.00400   0.00398   2.12732
    A8        2.06217   0.00072   0.00000   0.00323   0.00323   2.06540
    A9        2.09767  -0.00128   0.00000  -0.00726  -0.00728   2.09039
   A10        2.15630  -0.00214   0.00000  -0.00815  -0.00816   2.14814
   A11        2.06342   0.00107   0.00000   0.00408   0.00407   2.06749
   A12        2.06346   0.00107   0.00000   0.00406   0.00405   2.06751
   A13        2.09773  -0.00129   0.00000  -0.00730  -0.00731   2.09042
   A14        2.06216   0.00072   0.00000   0.00324   0.00324   2.06539
   A15        2.12329   0.00056   0.00000   0.00403   0.00401   2.12730
   A16        2.07678   0.00111   0.00000   0.00422   0.00420   2.08098
   A17        2.10902  -0.00263   0.00000  -0.01490  -0.01497   2.09405
   A18        2.09736   0.00152   0.00000   0.01055   0.01047   2.10783
   A19        1.88547  -0.00229   0.00000  -0.01609  -0.01655   1.86893
   A20        1.88548  -0.00229   0.00000  -0.01610  -0.01655   1.86893
   A21        1.89821  -0.00361   0.00000  -0.03413  -0.03481   1.86340
   A22        2.08772   0.00783   0.00000   0.07111   0.07123   2.15894
   A23        1.85017  -0.00024   0.00000  -0.00658  -0.00725   1.84292
   A24        1.85018  -0.00024   0.00000  -0.00658  -0.00726   1.84292
   A25        1.94765   0.00117   0.00000   0.01596   0.01558   1.96322
   A26        1.94766   0.00117   0.00000   0.01595   0.01557   1.96323
   A27        1.92681   0.00046   0.00000   0.01827   0.01765   1.94445
    D1        3.13997  -0.00079   0.00000  -0.03406  -0.03390   3.10607
    D2        0.00615  -0.00029   0.00000  -0.01422  -0.01423  -0.00808
    D3       -0.04426  -0.00024   0.00000  -0.00664  -0.00658  -0.05084
    D4        3.10511   0.00026   0.00000   0.01320   0.01309   3.11820
    D5       -0.00613   0.00029   0.00000   0.01419   0.01421   0.00808
    D6       -3.13999   0.00079   0.00000   0.03409   0.03394  -3.10605
    D7       -3.10508  -0.00026   0.00000  -0.01323  -0.01311  -3.11820
    D8        0.04424   0.00024   0.00000   0.00668   0.00662   0.05086
    D9        0.45032  -0.00357   0.00000  -0.04676  -0.04651   0.40381
   D10        2.73202   0.00310   0.00000   0.02061   0.02029   2.75231
   D11       -1.55042  -0.00024   0.00000  -0.01308  -0.01312  -1.56353
   D12       -2.73249  -0.00310   0.00000  -0.02051  -0.02018  -2.75268
   D13       -0.45080   0.00357   0.00000   0.04686   0.04661  -0.40419
   D14        1.54995   0.00024   0.00000   0.01317   0.01321   1.56316
   D15        3.13390  -0.00013   0.00000  -0.00408  -0.00412   3.12978
   D16       -0.00363   0.00009   0.00000   0.00479   0.00481   0.00118
   D17        0.00003   0.00039   0.00000   0.01574   0.01582   0.01586
   D18       -3.13750   0.00060   0.00000   0.02462   0.02475  -3.11275
   D19        0.00135   0.00010   0.00000   0.00438   0.00443   0.00578
   D20        3.13986  -0.00005   0.00000  -0.00233  -0.00233   3.13753
   D21       -3.13624   0.00031   0.00000   0.01309   0.01313  -3.12311
   D22        0.00226   0.00016   0.00000   0.00638   0.00637   0.00864
   D23        3.13627  -0.00031   0.00000  -0.01311  -0.01315   3.12312
   D24       -0.00132  -0.00010   0.00000  -0.00441  -0.00445  -0.00578
   D25       -0.00224  -0.00016   0.00000  -0.00640  -0.00640  -0.00863
   D26       -3.13983   0.00005   0.00000   0.00231   0.00230  -3.13753
   D27        0.00357  -0.00009   0.00000  -0.00474  -0.00475  -0.00118
   D28        3.13749  -0.00060   0.00000  -0.02462  -0.02476   3.11273
   D29       -3.13396   0.00013   0.00000   0.00412   0.00417  -3.12979
   D30       -0.00004  -0.00039   0.00000  -0.01576  -0.01584  -0.01588
   D31        1.08245   0.00117   0.00000   0.02384   0.02399   1.10644
   D32       -1.08245  -0.00117   0.00000  -0.02383  -0.02399  -1.10644
   D33       -0.94115   0.00571   0.00000   0.06247   0.06249  -0.87866
   D34       -3.10606   0.00336   0.00000   0.01480   0.01451  -3.09154
   D35        3.10608  -0.00336   0.00000  -0.01481  -0.01453   3.09155
   D36        0.94117  -0.00571   0.00000  -0.06248  -0.06250   0.87867
         Item               Value     Threshold  Converged?
 Maximum Force            0.012171     0.000450     NO 
 RMS     Force            0.002953     0.000300     NO 
 Maximum Displacement     0.055944     0.001800     NO 
 RMS     Displacement     0.015558     0.001200     NO 
 Predicted change in Energy=-1.590235D-03
 GradGradGradGradGradGradGradGradGradGradGradGradGradGradGradGradGradGrad

                          Input orientation:                          
 ---------------------------------------------------------------------
 Center     Atomic      Atomic             Coordinates (Angstroms)
 Number     Number       Type             X           Y           Z
 ---------------------------------------------------------------------
      1          6           0       -1.217588    0.515350   -0.843660
      2          6           0       -2.376660    1.039241   -1.412028
      3          1           0       -3.240352    1.248092   -0.788063
      4          6           0       -2.421198    1.257810   -2.786574
      5          1           0       -3.304513    1.653472   -3.275279
      6          6           0       -1.300066    0.940797   -3.540733
      7          6           0       -0.141635    0.410916   -2.989889
      8          1           0        0.697130    0.166798   -3.632154
      9          6           0       -0.102602    0.194389   -1.614844
     10          1           0        0.773593   -0.243172   -1.146080
     11         16           0       -1.151215    0.270838    0.919053
     12          8           0       -2.525048    0.159210    1.387291
     13          8           0       -0.127241   -0.732122    1.173367
     14          7           0       -0.567462    1.683086    1.577916
     15          1           0       -1.188784    2.474148    1.416796
     16          1           0        0.383458    1.889715    1.276525
     17          9           0       -1.342129    1.146389   -4.868613
 ---------------------------------------------------------------------
                    Distance matrix (angstroms):
                    1          2          3          4          5
     1  C    0.000000
     2  C    1.393181   0.000000
     3  H    2.152110   1.085778   0.000000
     4  C    2.403090   1.392528   2.159897   0.000000
     5  H    3.400492   2.170229   2.520852   1.084263   0.000000
     6  C    2.731668   2.387494   3.381764   1.387872   2.143870
     7  C    2.403098   2.807094   3.892422   2.440282   3.410160
     8  H    3.400490   3.890797   4.976124   3.410173   4.283772
     9  C    1.393174   2.434389   3.411646   2.807081   3.890784
    10  H    2.152118   3.411657   4.296952   3.892410   4.976112
    11  S    1.780828   2.743374   2.869454   4.039635   4.913328
    12  O    2.610254   2.938139   2.535644   4.317274   4.957816
    13  O    2.610256   3.857704   4.178506   4.990311   5.964609
    14  N    2.765918   3.553519   3.596028   4.760879   5.571878
    15  H    2.991217   3.387071   3.251699   4.546058   5.212042
    16  H    2.991223   3.945869   4.219740   4.977367   5.863093
    17  F    4.076023   3.609669   4.501609   2.347699   2.578138
                    6          7          8          9         10
     6  C    0.000000
     7  C    1.387864   0.000000
     8  H    2.143881   1.084262   0.000000
     9  C    2.387487   1.392536   2.170224   0.000000
    10  H    3.381746   2.159886   2.520811   1.085779   0.000000
    11  S    4.512282   4.039642   4.913317   2.743368   2.869471
    12  O    5.137789   4.990362   5.964672   3.857757   4.178625
    13  O    5.137793   4.317343   4.957890   2.938222   2.535825
    14  N    5.223817   4.760734   5.571638   3.553312   3.595699
    15  H    5.190437   4.977180   5.862800   3.945621   4.219370
    16  H    5.190441   4.545862   5.211714   3.386798   3.251219
    17  F    1.344360   2.347702   2.578178   3.609673   4.501600
                   11         12         13         14         15
    11  S    0.000000
    12  O    1.455722   0.000000
    13  O    1.455721   2.567044   0.000000
    14  N    1.664125   2.488108   2.488108   0.000000
    15  H    2.259145   2.673090   3.386192   1.018715   0.000000
    16  H    2.259153   3.386196   2.673103   1.018715   1.683207
    17  F    5.856630   6.442837   6.442847   6.515051   6.425949
                   16         17
    16  H    0.000000
    17  F    6.425956   0.000000
 Stoichiometry    C6H6FNO2S
 Framework group  C1[X(C6H6FNO2S)]
 Deg. of freedom    45
 Full point group                 C1      NOp   1
 Largest Abelian subgroup         C1      NOp   1
 Largest concise Abelian subgroup C1      NOp   1
                         Standard orientation:                         
 ---------------------------------------------------------------------
 Center     Atomic      Atomic             Coordinates (Angstroms)
 Number     Number       Type             X           Y           Z
 ---------------------------------------------------------------------
      1          6           0       -0.086158    0.000016   -0.094601
      2          6           0        0.591123    1.217208   -0.068382
      3          1           0        0.035590    2.148488   -0.123301
      4          6           0        1.982192    1.220136   -0.004723
      5          1           0        2.553068    2.141868    0.006903
      6          6           0        2.642719   -0.000013    0.028863
      7          6           0        1.982178   -1.220145   -0.004741
      8          1           0        2.553012   -2.141903    0.006875
      9          6           0        0.591101   -1.217181   -0.068401
     10          1           0        0.035576   -2.148464   -0.123352
     11         16           0       -1.866416    0.000029   -0.139652
     12          8           0       -2.280276    1.283659   -0.687502
     13          8           0       -2.280287   -1.283385   -0.687999
     14          7           0       -2.386584   -0.000274    1.441087
     15          1           0       -2.107935    0.841235    1.943081
     16          1           0       -2.107939   -0.841972    1.942768
     17          9           0        3.985883   -0.000013    0.085528
 ---------------------------------------------------------------------
 Rotational constants (GHZ):           2.5699074           0.5489082           0.4993960
 Basis read from rwf:  (6D, 7F)
 There are   225 symmetry adapted cartesian basis functions of A   symmetry.
 There are   225 symmetry adapted basis functions of A   symmetry.
   225 basis functions,   400 primitive gaussians,   225 cartesian basis functions
    45 alpha electrons       45 beta electrons
       nuclear repulsion energy       726.9356722258 Hartrees.
 NAtoms=   17 NActive=   17 NUniq=   17 SFac= 1.00D+00 NAtFMM=   60 NAOKFM=F Big=F
 Integral buffers will be    131072 words long.
 Raffenetti 2 integral format.
 Two-electron integral symmetry is turned on.
 One-electron integrals computed using PRISM.
 NBasis=   225 RedAO= T EigKep=  3.39D-06  NBF=   225
 NBsUse=   225 1.00D-06 EigRej= -1.00D+00 NBFU=   225
 Initial guess from the checkpoint file:  "/jobfs/40763998.gadi-pbs/Gau-2667090.chk"
 B after Tr=     0.000000   -0.000000   -0.000000
         Rot=    1.000000    0.000018    0.000007   -0.000001 Ang=   0.00 deg.
 ExpMin= 4.05D-02 ExpMax= 2.19D+04 ExpMxC= 3.30D+03 IAcc=3 IRadAn=         5 AccDes= 0.00D+00
 Harris functional with IExCor= 1009 and IRadAn=       5 diagonalized for initial guess.
 HarFok:  IExCor= 1009 AccDes= 0.00D+00 IRadAn=         5 IDoV= 1 UseB2=F ITyADJ=14
 ICtDFT=  3500011 ScaDFX=  1.000000  1.000000  1.000000  1.000000
 FoFCou: FMM=F IPFlag=           0 FMFlag=      100000 FMFlg1=           0
         NFxFlg=           0 DoJE=T BraDBF=F KetDBF=T FulRan=T
         wScrn=  0.000000 ICntrl=       500 IOpCl=  0 I1Cent=   200000004 NGrid=           0
         NMat0=    1 NMatS0=      1 NMatT0=    0 NMatD0=    1 NMtDS0=    0 NMtDT0=    0
 Petite list used in FoFCou.
 Requested convergence on RMS density matrix=1.00D-08 within 128 cycles.
 Requested convergence on MAX density matrix=1.00D-06.
 Requested convergence on             energy=1.00D-06.
 No special actions if energy rises.
 SCF Done:  E(RM062X) =  -935.180156287     A.U. after   13 cycles
            NFock= 13  Conv=0.26D-08     -V/T= 2.0062
 Calling FoFJK, ICntrl=      2127 FMM=F ISym2X=0 I1Cent= 0 IOpClX= 0 NMat=1 NMatS=1 NMatT=0.
 ***** Axes restored to original set *****
 -------------------------------------------------------------------
 Center     Atomic                   Forces (Hartrees/Bohr)
 Number     Number              X              Y              Z
 -------------------------------------------------------------------
      1        6          -0.000172556   -0.000257872   -0.000818514
      2        6          -0.000256337    0.000135160   -0.001746963
      3        1           0.000030823   -0.000141859    0.000234625
      4        6          -0.000056572   -0.000102986    0.001358452
      5        1          -0.000055031    0.000058637   -0.000173502
      6        6          -0.000073348    0.000292418   -0.001983768
      7        6           0.000190797   -0.000195312    0.001346338
      8        1           0.000050900    0.000019215   -0.000184974
      9        6           0.000010788    0.000034967   -0.001779296
     10        1          -0.000079217   -0.000101017    0.000246182
     11       16          -0.001376311   -0.004000346    0.001228104
     12        8           0.005444093   -0.000129931   -0.000687289
     13        8          -0.004246946    0.003473460    0.000177163
     14        7           0.001368498    0.003804461   -0.000500469
     15        1          -0.000269200   -0.001444098    0.000987068
     16        1          -0.000582254   -0.001328158    0.001014924
     17        9           0.000071871   -0.000116737    0.001281920
 -------------------------------------------------------------------
 Cartesian Forces:  Max     0.005444093 RMS     0.001529186

 GradGradGradGradGradGradGradGradGradGradGradGradGradGradGradGradGradGrad
 Berny optimization.
 Using GEDIIS/GDIIS optimizer.
 FormGI is forming the generalized inverse of G from B-inverse, IUseBI=4.
 Internal  Forces:  Max     0.005349436 RMS     0.001032528
 Search for a local minimum.
 Step number   2 out of a maximum of   90
 All quantities printed in internal units (Hartrees-Bohrs-Radians)
 Mixed Optimization -- RFO/linear search
 Update second derivatives using D2CorX and points    1    2
 DE= -1.56D-03 DEPred=-1.59D-03 R= 9.84D-01
 TightC=F SS=  1.41D+00  RLast= 1.74D-01 DXNew= 5.0454D-01 5.2139D-01
 Trust test= 9.84D-01 RLast= 1.74D-01 DXMaxT set to 5.05D-01
 ITU=  1  0
 Use linear search instead of GDIIS.
     Eigenvalues ---    0.00692   0.01604   0.01928   0.02152   0.02186
     Eigenvalues ---    0.02205   0.02210   0.02231   0.02234   0.02246
     Eigenvalues ---    0.02256   0.04146   0.10120   0.11415   0.14952
     Eigenvalues ---    0.15766   0.15993   0.15997   0.15999   0.16000
     Eigenvalues ---    0.16484   0.19388   0.22000   0.23007   0.23756
     Eigenvalues ---    0.24997   0.24999   0.25147   0.27922   0.35341
     Eigenvalues ---    0.35344   0.35436   0.35444   0.41038   0.42826
     Eigenvalues ---    0.42844   0.43779   0.43969   0.46672   0.47216
     Eigenvalues ---    0.47471   0.47687   0.55208   0.84266   0.90437
 RFO step:  Lambda=-2.34306942D-04 EMin= 6.92424091D-03
 Quartic linear search produced a step of  0.00673.
 Iteration  1 RMS(Cart)=  0.00938252 RMS(Int)=  0.00003883
 Iteration  2 RMS(Cart)=  0.00003930 RMS(Int)=  0.00001738
 Iteration  3 RMS(Cart)=  0.00000000 RMS(Int)=  0.00001738
 Variable       Old X    -DE/DX   Delta X   Delta X   Delta X     New X
                                 (Linear)    (Quad)   (Total)
    R1        2.63273   0.00044  -0.00002   0.00080   0.00078   2.63352
    R2        2.63272   0.00045  -0.00002   0.00081   0.00079   2.63351
    R3        3.36528   0.00216   0.00007   0.00837   0.00844   3.37372
    R4        2.05182   0.00008   0.00000   0.00028   0.00028   2.05211
    R5        2.63150  -0.00081   0.00002  -0.00153  -0.00151   2.62999
    R6        2.04896   0.00014  -0.00001   0.00036   0.00035   2.04931
    R7        2.62270   0.00030   0.00001   0.00068   0.00069   2.62339
    R8        2.62268   0.00030   0.00001   0.00070   0.00070   2.62339
    R9        2.54047  -0.00129  -0.00004  -0.00278  -0.00282   2.53765
   R10        2.04896   0.00014  -0.00001   0.00036   0.00036   2.04931
   R11        2.63151  -0.00082   0.00002  -0.00154  -0.00152   2.62999
   R12        2.05183   0.00008   0.00000   0.00028   0.00028   2.05211
   R13        2.75092  -0.00535  -0.00009  -0.00685  -0.00694   2.74398
   R14        2.75091  -0.00535  -0.00009  -0.00685  -0.00694   2.74397
   R15        3.14474   0.00165   0.00015   0.00542   0.00557   3.15031
   R16        1.92509  -0.00111  -0.00005  -0.00300  -0.00305   1.92204
   R17        1.92509  -0.00111  -0.00005  -0.00300  -0.00305   1.92204
    A1        2.12544  -0.00050  -0.00005  -0.00254  -0.00260   2.12284
    A2        2.07882   0.00025   0.00002   0.00128   0.00130   2.08013
    A3        2.07882   0.00025   0.00002   0.00127   0.00130   2.08012
    A4        2.09402  -0.00039  -0.00010  -0.00315  -0.00325   2.09077
    A5        2.08097   0.00027   0.00003   0.00145   0.00147   2.08244
    A6        2.10786   0.00012   0.00007   0.00176   0.00183   2.10969
    A7        2.12732   0.00008   0.00003   0.00089   0.00091   2.12823
    A8        2.06540   0.00010   0.00002   0.00060   0.00061   2.06602
    A9        2.09039  -0.00018  -0.00005  -0.00147  -0.00152   2.08887
   A10        2.14814  -0.00024  -0.00005  -0.00161  -0.00167   2.14647
   A11        2.06749   0.00012   0.00003   0.00081   0.00084   2.06833
   A12        2.06751   0.00012   0.00003   0.00080   0.00083   2.06834
   A13        2.09042  -0.00018  -0.00005  -0.00149  -0.00154   2.08888
   A14        2.06539   0.00010   0.00002   0.00060   0.00062   2.06601
   A15        2.12730   0.00008   0.00003   0.00090   0.00093   2.12823
   A16        2.08098   0.00027   0.00003   0.00144   0.00146   2.08244
   A17        2.09405  -0.00039  -0.00010  -0.00316  -0.00326   2.09078
   A18        2.10783   0.00013   0.00007   0.00177   0.00185   2.10968
   A19        1.86893   0.00047  -0.00011   0.00361   0.00350   1.87243
   A20        1.86893   0.00047  -0.00011   0.00361   0.00350   1.87243
   A21        1.86340   0.00194  -0.00023   0.00838   0.00814   1.87154
   A22        2.15894  -0.00081   0.00048  -0.00453  -0.00409   2.15485
   A23        1.84292  -0.00082  -0.00005  -0.00460  -0.00468   1.83824
   A24        1.84292  -0.00082  -0.00005  -0.00460  -0.00468   1.83824
   A25        1.96322  -0.00036   0.00010   0.00280   0.00285   1.96607
   A26        1.96323  -0.00036   0.00010   0.00279   0.00284   1.96607
   A27        1.94445   0.00113   0.00012   0.01496   0.01499   1.95944
    D1        3.10607  -0.00008  -0.00023  -0.00563  -0.00586   3.10021
    D2       -0.00808  -0.00016  -0.00010  -0.00789  -0.00798  -0.01606
    D3       -0.05084  -0.00009  -0.00004  -0.00516  -0.00521  -0.05604
    D4        3.11820  -0.00018   0.00009  -0.00742  -0.00733   3.11087
    D5        0.00808   0.00016   0.00010   0.00789   0.00798   0.01606
    D6       -3.10605   0.00008   0.00023   0.00563   0.00585  -3.10020
    D7       -3.11820   0.00018  -0.00009   0.00742   0.00734  -3.11086
    D8        0.05086   0.00009   0.00004   0.00516   0.00521   0.05606
    D9        0.40381   0.00018  -0.00031   0.00011  -0.00020   0.40362
   D10        2.75231  -0.00016   0.00014  -0.00039  -0.00026   2.75204
   D11       -1.56353   0.00001  -0.00009  -0.00014  -0.00023  -1.56376
   D12       -2.75268   0.00016  -0.00014   0.00053   0.00040  -2.75228
   D13       -0.40419  -0.00018   0.00031   0.00003   0.00033  -0.40385
   D14        1.56316  -0.00001   0.00009   0.00028   0.00037   1.56353
   D15        3.12978   0.00008  -0.00003   0.00329   0.00326   3.13305
   D16        0.00118   0.00005   0.00003   0.00260   0.00264   0.00382
   D17        0.01586   0.00000   0.00011   0.00109   0.00120   0.01706
   D18       -3.11275  -0.00002   0.00017   0.00041   0.00057  -3.11218
   D19        0.00578   0.00005   0.00003   0.00260   0.00263   0.00841
   D20        3.13753   0.00006  -0.00002   0.00262   0.00260   3.14013
   D21       -3.12311   0.00003   0.00009   0.00191   0.00200  -3.12111
   D22        0.00864   0.00003   0.00004   0.00193   0.00197   0.01061
   D23        3.12312  -0.00003  -0.00009  -0.00192  -0.00201   3.12111
   D24       -0.00578  -0.00005  -0.00003  -0.00259  -0.00263  -0.00840
   D25       -0.00863  -0.00003  -0.00004  -0.00194  -0.00198  -0.01061
   D26       -3.13753  -0.00006   0.00002  -0.00262  -0.00260  -3.14013
   D27       -0.00118  -0.00005  -0.00003  -0.00261  -0.00265  -0.00382
   D28        3.11273   0.00002  -0.00017  -0.00041  -0.00057   3.11216
   D29       -3.12979  -0.00008   0.00003  -0.00328  -0.00326  -3.13305
   D30       -0.01588  -0.00000  -0.00011  -0.00108  -0.00119  -0.01707
   D31        1.10644   0.00047   0.00016   0.01249   0.01268   1.11912
   D32       -1.10644  -0.00047  -0.00016  -0.01250  -0.01268  -1.11912
   D33       -0.87866  -0.00054   0.00042   0.00682   0.00728  -0.87139
   D34       -3.09154  -0.00149   0.00010  -0.01818  -0.01808  -3.10962
   D35        3.09155   0.00149  -0.00010   0.01817   0.01807   3.10962
   D36        0.87867   0.00054  -0.00042  -0.00682  -0.00729   0.87139
         Item               Value     Threshold  Converged?
 Maximum Force            0.005349     0.000450     NO 
 RMS     Force            0.001033     0.000300     NO 
 Maximum Displacement     0.040788     0.001800     NO 
 RMS     Displacement     0.009372     0.001200     NO 
 Predicted change in Energy=-1.175559D-04
 GradGradGradGradGradGradGradGradGradGradGradGradGradGradGradGradGradGrad

                          Input orientation:                          
 ---------------------------------------------------------------------
 Center     Atomic      Atomic             Coordinates (Angstroms)
 Number     Number       Type             X           Y           Z
 ---------------------------------------------------------------------
      1          6           0       -1.218740    0.513358   -0.848433
      2          6           0       -2.378534    1.034350   -1.419008
      3          1           0       -3.242190    1.239882   -0.793633
      4          6           0       -2.422257    1.255679   -2.792331
      5          1           0       -3.305121    1.652003   -3.281728
      6          6           0       -1.300331    0.941648   -3.547230
      7          6           0       -0.143139    0.408889   -2.995621
      8          1           0        0.695579    0.165569   -3.638566
      9          6           0       -0.105463    0.189802   -1.621757
     10          1           0        0.768752   -0.250378   -1.151407
     11         16           0       -1.149520    0.275215    0.919552
     12          8           0       -2.517469    0.164534    1.393801
     13          8           0       -0.128293   -0.723468    1.180651
     14          7           0       -0.565237    1.687365    1.585569
     15          1           0       -1.188944    2.477188    1.438379
     16          1           0        0.388809    1.890778    1.297623
     17          9           0       -1.340218    1.152542   -4.872833
 ---------------------------------------------------------------------
                    Distance matrix (angstroms):
                    1          2          3          4          5
     1  C    0.000000
     2  C    1.393596   0.000000
     3  H    2.150625   1.085928   0.000000
     4  C    2.403795   1.391731   2.160401   0.000000
     5  H    3.401533   2.170204   2.522781   1.084450   0.000000
     6  C    2.733788   2.387561   3.382611   1.388238   2.143427
     7  C    2.403798   2.806047   3.891454   2.439827   3.409592
     8  H    3.401532   3.889909   4.975321   3.409597   4.282805
     9  C    1.393594   2.433356   3.409914   2.806042   3.889903
    10  H    2.150631   3.409919   4.293779   3.891449   4.975316
    11  S    1.785294   2.748750   2.871385   4.044656   4.918630
    12  O    2.614573   2.947503   2.542923   4.327050   4.969259
    13  O    2.614574   3.861572   4.177187   4.996386   5.970589
    14  N    2.780238   3.569587   3.609282   4.775027   5.585588
    15  H    3.014469   3.414903   3.275457   4.572970   5.238182
    16  H    3.014474   3.971365   4.240421   5.003315   5.888343
    17  F    4.076654   3.608459   4.501666   2.347325   2.577192
                    6          7          8          9         10
     6  C    0.000000
     7  C    1.388236   0.000000
     8  H    2.143431   1.084450   0.000000
     9  C    2.387558   1.391733   2.170202   0.000000
    10  H    3.382603   2.160394   2.522762   1.085928   0.000000
    11  S    4.518742   4.044657   4.918624   2.748746   2.871392
    12  O    5.147730   4.996416   5.970628   3.861606   4.177258
    13  O    5.147733   4.327089   4.969307   2.947554   2.543029
    14  N    5.238520   4.774931   5.585438   3.569458   3.609074
    15  H    5.217911   5.003192   5.888157   3.971209   4.240187
    16  H    5.217916   4.572844   5.237978   3.414733   3.275157
    17  F    1.342866   2.347327   2.577207   3.608460   4.501661
                   11         12         13         14         15
    11  S    0.000000
    12  O    1.452050   0.000000
    13  O    1.452049   2.557762   0.000000
    14  N    1.667073   2.483344   2.483344   0.000000
    15  H    2.262614   2.667459   3.381658   1.017102   0.000000
    16  H    2.262617   3.381660   2.667463   1.017101   1.689081
    17  F    5.861552   6.452347   6.452352   6.526683   6.450502
                   16         17
    16  H    0.000000
    17  F    6.450508   0.000000
 Stoichiometry    C6H6FNO2S
 Framework group  C1[X(C6H6FNO2S)]
 Deg. of freedom    45
 Full point group                 C1      NOp   1
 Largest Abelian subgroup         C1      NOp   1
 Largest concise Abelian subgroup C1      NOp   1
                         Standard orientation:                         
 ---------------------------------------------------------------------
 Center     Atomic      Atomic             Coordinates (Angstroms)
 Number     Number       Type             X           Y           Z
 ---------------------------------------------------------------------
      1          6           0       -0.082379    0.000011   -0.099259
      2          6           0        0.596766    1.216686   -0.075312
      3          1           0        0.039536    2.146898   -0.133957
      4          6           0        1.986806    1.219911   -0.006813
      5          1           0        2.558410    2.141394    0.006273
      6          6           0        2.648319   -0.000007    0.030688
      7          6           0        1.986794   -1.219916   -0.006822
      8          1           0        2.558378   -2.141411    0.006253
      9          6           0        0.596752   -1.216669   -0.075327
     10          1           0        0.039523   -2.146881   -0.133998
     11         16           0       -1.867224    0.000019   -0.139303
     12          8           0       -2.286477    1.278967   -0.684248
     13          8           0       -2.286483   -1.278794   -0.684561
     14          7           0       -2.396658   -0.000174    1.441466
     15          1           0       -2.132538    0.844306    1.943053
     16          1           0       -2.132544   -0.844775    1.942851
     17          9           0        3.989640   -0.000011    0.095072
 ---------------------------------------------------------------------
 Rotational constants (GHZ):           2.5763624           0.5468879           0.4979051
 Basis read from rwf:  (6D, 7F)
 There are   225 symmetry adapted cartesian basis functions of A   symmetry.
 There are   225 symmetry adapted basis functions of A   symmetry.
   225 basis functions,   400 primitive gaussians,   225 cartesian basis functions
    45 alpha electrons       45 beta electrons
       nuclear repulsion energy       726.6129786668 Hartrees.
 NAtoms=   17 NActive=   17 NUniq=   17 SFac= 1.00D+00 NAtFMM=   60 NAOKFM=F Big=F
 Integral buffers will be    131072 words long.
 Raffenetti 2 integral format.
 Two-electron integral symmetry is turned on.
 One-electron integrals computed using PRISM.
 NBasis=   225 RedAO= T EigKep=  3.44D-06  NBF=   225
 NBsUse=   225 1.00D-06 EigRej= -1.00D+00 NBFU=   225
 Initial guess from the checkpoint file:  "/jobfs/40763998.gadi-pbs/Gau-2667090.chk"
 B after Tr=    -0.000000    0.000000    0.000000
         Rot=    1.000000    0.000019    0.000281   -0.000000 Ang=   0.03 deg.
 ExpMin= 4.05D-02 ExpMax= 2.19D+04 ExpMxC= 3.30D+03 IAcc=3 IRadAn=         5 AccDes= 0.00D+00
 Harris functional with IExCor= 1009 and IRadAn=       5 diagonalized for initial guess.
 HarFok:  IExCor= 1009 AccDes= 0.00D+00 IRadAn=         5 IDoV= 1 UseB2=F ITyADJ=14
 ICtDFT=  3500011 ScaDFX=  1.000000  1.000000  1.000000  1.000000
 FoFCou: FMM=F IPFlag=           0 FMFlag=      100000 FMFlg1=           0
         NFxFlg=           0 DoJE=T BraDBF=F KetDBF=T FulRan=T
         wScrn=  0.000000 ICntrl=       500 IOpCl=  0 I1Cent=   200000004 NGrid=           0
         NMat0=    1 NMatS0=      1 NMatT0=    0 NMatD0=    1 NMtDS0=    0 NMtDT0=    0
 Petite list used in FoFCou.
 Requested convergence on RMS density matrix=1.00D-08 within 128 cycles.
 Requested convergence on MAX density matrix=1.00D-06.
 Requested convergence on             energy=1.00D-06.
 No special actions if energy rises.
 SCF Done:  E(RM062X) =  -935.180277466     A.U. after   12 cycles
            NFock= 12  Conv=0.21D-08     -V/T= 2.0062
 Calling FoFJK, ICntrl=      2127 FMM=F ISym2X=0 I1Cent= 0 IOpClX= 0 NMat=1 NMatS=1 NMatT=0.
 ***** Axes restored to original set *****
 -------------------------------------------------------------------
 Center     Atomic                   Forces (Hartrees/Bohr)
 Number     Number              X              Y              Z
 -------------------------------------------------------------------
      1        6          -0.000105920   -0.000256827   -0.000101251
      2        6          -0.000091502    0.000185144   -0.000055730
      3        1          -0.000047936    0.000091659    0.000009670
      4        6          -0.000081037   -0.000111472    0.000377716
      5        1          -0.000049039   -0.000009541   -0.000002462
      6        6           0.000003397    0.000098823   -0.000353464
      7        6           0.000047919   -0.000159983    0.000369440
      8        1           0.000029635   -0.000038700   -0.000010225
      9        6           0.000181346    0.000082939   -0.000083305
     10        1           0.000096307    0.000038303   -0.000002416
     11       16           0.000264684    0.000441755    0.001129374
     12        8           0.000650052   -0.000407114   -0.000561099
     13        8          -0.000835096    0.000145204   -0.000428491
     14        7           0.000040668    0.000407070   -0.001231933
     15        1          -0.000221676   -0.000183587    0.000351183
     16        1           0.000101155   -0.000303584    0.000322335
     17        9           0.000017042   -0.000020089    0.000270656
 -------------------------------------------------------------------
 Cartesian Forces:  Max     0.001231933 RMS     0.000348231

 GradGradGradGradGradGradGradGradGradGradGradGradGradGradGradGradGradGrad
 Berny optimization.
 Using GEDIIS/GDIIS optimizer.
 FormGI is forming the generalized inverse of G from B-inverse, IUseBI=4.
 Internal  Forces:  Max     0.000764658 RMS     0.000227964
 Search for a local minimum.
 Step number   3 out of a maximum of   90
 All quantities printed in internal units (Hartrees-Bohrs-Radians)
 Mixed Optimization -- En-DIIS/RFO-DIIS
 Update second derivatives using D2CorX and points    1    2    3
 DE= -1.21D-04 DEPred=-1.18D-04 R= 1.03D+00
 TightC=F SS=  1.41D+00  RLast= 4.69D-02 DXNew= 8.4853D-01 1.4070D-01
 Trust test= 1.03D+00 RLast= 4.69D-02 DXMaxT set to 5.05D-01
 ITU=  1  1  0
 Use linear search instead of GDIIS.
     Eigenvalues ---    0.00692   0.01606   0.01928   0.02186   0.02203
     Eigenvalues ---    0.02210   0.02213   0.02232   0.02234   0.02242
     Eigenvalues ---    0.02253   0.03419   0.10016   0.11751   0.15135
     Eigenvalues ---    0.15994   0.15998   0.15999   0.16000   0.16095
     Eigenvalues ---    0.16857   0.19469   0.22000   0.23038   0.24149
     Eigenvalues ---    0.24997   0.24999   0.25886   0.29724   0.35326
     Eigenvalues ---    0.35343   0.35436   0.35437   0.41521   0.42819
     Eigenvalues ---    0.43004   0.43610   0.43969   0.46672   0.47124
     Eigenvalues ---    0.47223   0.47686   0.54794   0.78524   0.90437
 RFO step:  Lambda=-2.60381416D-05 EMin= 6.92423272D-03
 Quartic linear search produced a step of  0.03472.
 Iteration  1 RMS(Cart)=  0.00238763 RMS(Int)=  0.00000887
 Iteration  2 RMS(Cart)=  0.00000694 RMS(Int)=  0.00000596
 Iteration  3 RMS(Cart)=  0.00000000 RMS(Int)=  0.00000596
 Variable       Old X    -DE/DX   Delta X   Delta X   Delta X     New X
                                 (Linear)    (Quad)   (Total)
    R1        2.63352   0.00001   0.00003   0.00005   0.00007   2.63359
    R2        2.63351   0.00001   0.00003   0.00005   0.00008   2.63359
    R3        3.37372  -0.00043   0.00029  -0.00087  -0.00057   3.37314
    R4        2.05211   0.00006   0.00001   0.00021   0.00021   2.05232
    R5        2.62999  -0.00034  -0.00005  -0.00083  -0.00088   2.62911
    R6        2.04931   0.00004   0.00001   0.00013   0.00014   2.04945
    R7        2.62339   0.00018   0.00002   0.00047   0.00049   2.62388
    R8        2.62339   0.00019   0.00002   0.00047   0.00050   2.62388
    R9        2.53765  -0.00027  -0.00010  -0.00077  -0.00087   2.53678
   R10        2.04931   0.00004   0.00001   0.00013   0.00014   2.04945
   R11        2.62999  -0.00034  -0.00005  -0.00083  -0.00088   2.62911
   R12        2.05211   0.00006   0.00001   0.00020   0.00021   2.05232
   R13        2.74398  -0.00076  -0.00024  -0.00151  -0.00175   2.74223
   R14        2.74397  -0.00076  -0.00024  -0.00151  -0.00175   2.74223
   R15        3.15031  -0.00032   0.00019  -0.00017   0.00003   3.15034
   R16        1.92204  -0.00006  -0.00011  -0.00042  -0.00053   1.92152
   R17        1.92204  -0.00006  -0.00011  -0.00042  -0.00053   1.92152
    A1        2.12284   0.00031  -0.00009   0.00105   0.00096   2.12380
    A2        2.08013  -0.00016   0.00005  -0.00053  -0.00049   2.07964
    A3        2.08012  -0.00016   0.00005  -0.00053  -0.00049   2.07964
    A4        2.09077   0.00013  -0.00011   0.00029   0.00018   2.09095
    A5        2.08244  -0.00016   0.00005  -0.00060  -0.00055   2.08189
    A6        2.10969   0.00003   0.00006   0.00029   0.00035   2.11005
    A7        2.12823  -0.00001   0.00003  -0.00002   0.00001   2.12825
    A8        2.06602  -0.00002   0.00002   0.00005   0.00007   2.06609
    A9        2.08887   0.00003  -0.00005  -0.00003  -0.00008   2.08879
   A10        2.14647   0.00005  -0.00006   0.00008   0.00002   2.14650
   A11        2.06833  -0.00002   0.00003  -0.00004  -0.00001   2.06832
   A12        2.06834  -0.00003   0.00003  -0.00004  -0.00001   2.06833
   A13        2.08888   0.00003  -0.00005  -0.00003  -0.00009   2.08879
   A14        2.06601  -0.00002   0.00002   0.00005   0.00007   2.06609
   A15        2.12823  -0.00001   0.00003  -0.00001   0.00002   2.12825
   A16        2.08244  -0.00016   0.00005  -0.00060  -0.00055   2.08189
   A17        2.09078   0.00013  -0.00011   0.00028   0.00017   2.09095
   A18        2.10968   0.00004   0.00006   0.00030   0.00036   2.11004
   A19        1.87243  -0.00027   0.00012  -0.00230  -0.00218   1.87025
   A20        1.87243  -0.00027   0.00012  -0.00230  -0.00218   1.87025
   A21        1.87154  -0.00036   0.00028  -0.00052  -0.00024   1.87130
   A22        2.15485  -0.00027  -0.00014  -0.00189  -0.00205   2.15281
   A23        1.83824   0.00058  -0.00016   0.00370   0.00353   1.84177
   A24        1.83824   0.00058  -0.00016   0.00370   0.00353   1.84177
   A25        1.96607   0.00002   0.00010   0.00226   0.00234   1.96840
   A26        1.96607   0.00002   0.00010   0.00225   0.00233   1.96840
   A27        1.95944   0.00027   0.00052   0.00587   0.00636   1.96579
    D1        3.10021   0.00006  -0.00020   0.00219   0.00198   3.10220
    D2       -0.01606   0.00007  -0.00028   0.00295   0.00267  -0.01339
    D3       -0.05604   0.00003  -0.00018   0.00068   0.00050  -0.05554
    D4        3.11087   0.00004  -0.00025   0.00144   0.00119   3.11205
    D5        0.01606  -0.00007   0.00028  -0.00295  -0.00267   0.01339
    D6       -3.10020  -0.00006   0.00020  -0.00219  -0.00199  -3.10219
    D7       -3.11086  -0.00004   0.00025  -0.00144  -0.00119  -3.11205
    D8        0.05606  -0.00003   0.00018  -0.00069  -0.00051   0.05555
    D9        0.40362   0.00039  -0.00001   0.00369   0.00368   0.40730
   D10        2.75204  -0.00036  -0.00001  -0.00214  -0.00215   2.74989
   D11       -1.56376   0.00001  -0.00001   0.00077   0.00077  -1.56299
   D12       -2.75228   0.00036   0.00001   0.00224   0.00225  -2.75002
   D13       -0.40385  -0.00039   0.00001  -0.00360  -0.00358  -0.40743
   D14        1.56353  -0.00001   0.00001  -0.00068  -0.00066   1.56286
   D15        3.13305  -0.00003   0.00011  -0.00117  -0.00105   3.13200
   D16        0.00382  -0.00004   0.00009  -0.00175  -0.00166   0.00215
   D17        0.01706  -0.00001   0.00004  -0.00040  -0.00036   0.01670
   D18       -3.11218  -0.00003   0.00002  -0.00099  -0.00097  -3.11314
   D19        0.00841   0.00001   0.00009   0.00065   0.00075   0.00915
   D20        3.14013   0.00002   0.00009   0.00110   0.00119   3.14132
   D21       -3.12111  -0.00000   0.00007   0.00008   0.00015  -3.12096
   D22        0.01061   0.00001   0.00007   0.00052   0.00059   0.01120
   D23        3.12111   0.00000  -0.00007  -0.00008  -0.00015   3.12096
   D24       -0.00840  -0.00001  -0.00009  -0.00066  -0.00075  -0.00915
   D25       -0.01061  -0.00001  -0.00007  -0.00052  -0.00059  -0.01120
   D26       -3.14013  -0.00002  -0.00009  -0.00110  -0.00119  -3.14131
   D27       -0.00382   0.00004  -0.00009   0.00176   0.00166  -0.00216
   D28        3.11216   0.00003  -0.00002   0.00100   0.00098   3.11313
   D29       -3.13305   0.00003  -0.00011   0.00117   0.00105  -3.13200
   D30       -0.01707   0.00001  -0.00004   0.00041   0.00036  -0.01671
   D31        1.11912   0.00020   0.00044   0.00600   0.00645   1.12556
   D32       -1.11912  -0.00020  -0.00044  -0.00600  -0.00645  -1.12557
   D33       -0.87139   0.00039   0.00025   0.00713   0.00740  -0.86399
   D34       -3.10962  -0.00000  -0.00063  -0.00487  -0.00550  -3.11513
   D35        3.10962   0.00000   0.00063   0.00487   0.00550   3.11512
   D36        0.87139  -0.00039  -0.00025  -0.00714  -0.00740   0.86399
         Item               Value     Threshold  Converged?
 Maximum Force            0.000765     0.000450     NO 
 RMS     Force            0.000228     0.000300     YES
 Maximum Displacement     0.008395     0.001800     NO 
 RMS     Displacement     0.002387     0.001200     NO 
 Predicted change in Energy=-1.318613D-05
 GradGradGradGradGradGradGradGradGradGradGradGradGradGradGradGradGradGrad

                          Input orientation:                          
 ---------------------------------------------------------------------
 Center     Atomic      Atomic             Coordinates (Angstroms)
 Number     Number       Type             X           Y           Z
 ---------------------------------------------------------------------
      1          6           0       -1.218598    0.513840   -0.848975
      2          6           0       -2.378473    1.035494   -1.418877
      3          1           0       -3.241603    1.242214   -0.792970
      4          6           0       -2.422753    1.254944   -2.792012
      5          1           0       -3.305821    1.650797   -3.281589
      6          6           0       -1.300788    0.940391   -3.547114
      7          6           0       -0.143208    0.407947   -2.995354
      8          1           0        0.695307    0.164120   -3.638499
      9          6           0       -0.104746    0.190655   -1.621701
     10          1           0        0.769919   -0.248338   -1.150816
     11         16           0       -1.149166    0.276308    0.918778
     12          8           0       -2.517092    0.162126    1.389417
     13          8           0       -0.130724   -0.724744    1.176521
     14          7           0       -0.564858    1.688879    1.583914
     15          1           0       -1.189793    2.478485    1.442822
     16          1           0        0.390902    1.891035    1.301807
     17          9           0       -1.340819    1.150803   -4.872321
 ---------------------------------------------------------------------
                    Distance matrix (angstroms):
                    1          2          3          4          5
     1  C    0.000000
     2  C    1.393636   0.000000
     3  H    2.150863   1.086041   0.000000
     4  C    2.403043   1.391265   2.160289   0.000000
     5  H    3.400996   2.169854   2.522754   1.084525   0.000000
     6  C    2.732884   2.387434   3.382776   1.388498   2.143673
     7  C    2.403044   2.806333   3.891856   2.440302   3.410091
     8  H    3.400997   3.890262   4.975799   3.410092   4.283295
     9  C    1.393636   2.434076   3.410637   2.806331   3.890260
    10  H    2.150867   3.410639   4.294428   3.891855   4.975798
    11  S    1.784991   2.748125   2.870775   4.043478   4.917669
    12  O    2.611549   2.944233   2.540536   4.322905   4.965535
    13  O    2.611551   3.858356   4.174373   4.992176   5.966505
    14  N    2.779756   3.568314   3.607499   4.773761   5.584572
    15  H    3.018774   3.418260   3.276744   4.577233   5.242394
    16  H    3.018779   3.975363   4.243130   5.008056   5.893301
    17  F    4.075288   3.607811   4.501382   2.347150   2.577141
                    6          7          8          9         10
     6  C    0.000000
     7  C    1.388498   0.000000
     8  H    2.143675   1.084525   0.000000
     9  C    2.387433   1.391265   2.169853   0.000000
    10  H    3.382773   2.160285   2.522747   1.086042   0.000000
    11  S    4.517543   4.043477   4.917666   2.748123   2.870777
    12  O    5.143388   4.992191   5.966528   3.858375   4.174412
    13  O    5.143390   4.322926   4.965564   2.944262   2.540595
    14  N    5.237297   4.773706   5.584487   3.568241   3.607380
    15  H    5.222788   5.007981   5.893191   3.975273   4.242994
    16  H    5.222794   4.577163   5.242282   3.418166   3.276574
    17  F    1.342404   2.347150   2.577144   3.607810   4.501379
                   11         12         13         14         15
[...]
   zy         0.267708D+02      0.396703D+01      0.441392D+01
   zz         0.899948D+02      0.133358D+02      0.148381D+02

 ----------------------------------------------------------------------
 Unable to Open any file for archive entry.
 1\1\GINC-GADI-CPU-CLX-1241\Freq\RM062X\Gen\C6H6F1N1O2S1\YJ5695\20-May-
 2022\0\\#N Geom=AllCheck Guess=TCheck SCRF=Check GenChk RM062X/ChkBas 
 Freq\\HA.6.a3.freq\\0,1\C,-1.2184746477,0.5142324701,-0.8493895511\C,-
 2.378293438,1.0358999427,-1.4192896887\H,-3.2413393726,1.2435384482,-0
 .7936908289\C,-2.4227520577,1.2548619622,-2.7926611487\H,-3.3058463739
 ,1.6506033314,-3.2822685028\C,-1.3010960222,0.939736933,-3.5478511971\
 C,-0.1433782563,0.4078639058,-2.9960084919\H,0.6950550517,0.1638988999
 ,-3.6391981186\C,-0.1046814956,0.191043101,-1.6221235777\H,0.770456115
 8,-0.2472139602,-1.1515910762\S,-1.1490555557,0.2767199404,0.918046195
 4\O,-2.5168129268,0.1631591325,1.3903081325\O,-0.1299997969,-0.7237606
 33,1.1773757301\N,-0.5655291347,1.6877432427,1.5816500983\H,-1.1908243
 953,2.4779314099,1.4471625812\H,0.3918897699,1.8898039001,1.3059710341
 \F,-1.3416304642,1.1488929733,-4.8734115897\\Version=ES64L-G16RevC.01\
 State=1-A\HF=-935.1802937\RMSD=1.693e-09\RMSF=1.029e-05\ZeroPoint=0.12
 1114\Thermal=0.1307241\ETot=-935.0495696\HTot=-935.0486254\GTot=-935.0
 948066\Dipole=0.4600153,1.5043966,-1.1097978\DipoleDeriv=-0.2684217,0.
 0028958,0.0047081,0.0041716,-0.2692921,0.0441533,-0.000605,0.0298534,-
 0.4010438,0.0422574,-0.0512937,0.1023001,-0.0189903,-0.0639879,-0.0951
 364,-0.0554303,-0.0232036,0.0202936,0.069039,0.0236166,0.0273304,0.018
 6909,0.1203374,-0.0101095,0.0369801,-0.0115318,0.0929805,-0.0392545,-0
 .0568179,0.1961619,-0.0362153,-0.1119233,-0.0480141,0.0601602,-0.00248
 7,-0.272553,0.0431849,0.0494142,-0.0349914,0.0455226,0.1396233,0.03320
 36,-0.0281889,0.0255463,0.0432261,0.2906411,-0.0574605,0.0309394,-0.05
 92483,0.2029068,-0.2212527,0.0383861,-0.2012138,1.5776293,-0.065348,-0
 .0007245,-0.2125571,-0.0202609,-0.1350925,0.1033043,-0.0809968,0.04582
 66,-0.2232888,0.0511275,0.0360825,0.0491452,0.0407187,0.1452655,0.0021
 043,0.0392417,0.0014157,0.0296411,0.0136231,-0.031432,-0.1406553,-0.06
 53606,-0.0501835,0.0002301,0.0238447,-0.0534841,0.0351229,0.0611029,0.
 0234653,-0.0208904,0.0279857,0.1180355,0.0072428,-0.0288522,0.0132076,
 0.1032187,1.9493812,0.0730622,0.100627,0.0892648,2.1316074,0.0910866,0
 .0331387,-0.0905334,2.6618035,-1.0180373,-0.1688087,0.3406818,-0.03139
 52,-0.584795,0.0274831,0.1912603,0.0752697,-0.938449,-0.7885147,0.3366
 645,-0.2432789,0.2023636,-0.8911805,0.2160146,-0.1068247,0.1333325,-0.
 8615864,-0.4986849,-0.1959123,-0.2105582,-0.2145117,-0.8869247,-0.4059
 194,-0.1330869,-0.1974331,-1.0765467,0.1478915,-0.0346133,-0.0613707,-
 0.0003168,0.1727501,0.058701,-0.038257,0.0663956,0.3437697,0.2041586,0
 .0290507,0.1087216,-0.0073043,0.1439198,-0.0057463,0.094184,0.0096366,
 0.3163325,-0.1941459,0.0228111,-0.0363136,0.0248855,-0.1810663,0.20265
 49,-0.0449539,0.179403,-1.4505501\Polar=96.9350565,-11.6117622,71.0145
 915,0.5023786,-4.4075876,125.1950868\Quadrupole=5.7761542,2.6788906,-8
 .4550448,-0.5339909,1.4064927,7.2191467\PG=C01 [X(C6H6F1N1O2S1)]\NImag
 =0\\0.63873057,-0.18820693,0.21436249,-0.02931072,-0.03985436,0.548726
 73,-0.27162986,0.09382687,-0.09504937,0.66217205,0.08288840,-0.0984523
 8,0.04861154,-0.18101474,0.21567207,-0.03845057,0.02635060,-0.14823780
 ,-0.06615942,-0.05993527,0.70850465,-0.01567512,0.00467366,0.01459846,
 -0.24309955,0.05201659,0.13373011,0.25405817,0.00880575,0.00147984,-0.
 00647971,0.04985431,-0.05305640,-0.02998849,-0.05802921,0.04280589,-0.
 00913828,0.00220947,0.01222504,0.13416140,-0.03093931,-0.15383671,-0.1
 4316514,0.03144254,0.15932219,0.03142825,-0.00617408,-0.02629233,-0.12
 358730,0.02950381,-0.03957494,0.00687022,-0.00394471,0.02404974,0.6776
 7354,0.00229667,0.00475819,0.01357916,0.01933590,-0.07670802,0.0576451
 0,-0.00051926,0.00564515,-0.00624911,-0.20599325,0.21785468,-0.0801868
 5,0.03508940,-0.01972435,0.03089356,0.03072411,-0.35487142,-0.00284064
 ,0.00332101,-0.01162773,0.00780880,-0.08763550,0.71328192,0.00251860,0
 .00148323,0.00101920,0.00505948,-0.00086581,0.00122290,-0.00005228,-0.
 00154360,-0.00052204,-0.25501613,0.09579478,-0.10490374,0.26420285,0.0
 0195373,0.00629932,0.00161301,0.00257379,0.00184213,0.00095268,-0.0014
 5027,-0.00377823,-0.00076997,0.09562399,-0.07838106,0.05043813,-0.1046
 3013,0.07154280,0.00102076,0.00126510,-0.00509590,-0.02570003,0.010937
 14,-0.00775012,0.00003642,-0.00081808,0.00106273,-0.10667451,0.0510429
 8,-0.11614952,0.11435245,-0.05540802,0.11721032,-0.07976775,0.02749085
 ,0.00670647,0.04707454,-0.03068225,0.08264718,0.00185504,0.00259704,-0
 .00118144,-0.27848685,0.07222892,0.04692243,-0.01567103,0.00606640,0.0
 1513607,0.65781746,0.02747102,-0.01567075,-0.00409387,-0.02002206,0.01
 271905,-0.02594284,0.00219919,0.00692147,0.00236967,0.06114453,-0.0897
 2791,-0.00329682,0.00991833,0.00247714,-0.00650313,-0.18882471,0.23892
 117,0.00678908,-0.00387165,0.00164543,0.01955459,-0.00147738,-0.036961
 05,-0.00104577,0.00193791,-0.00358011,0.13019424,-0.03424341,-0.170579
 58,-0.01505844,0.00451919,0.01181844,-0.02838334,-0.06896085,0.6996092
 4,0.03811264,-0.01380092,0.01885631,-0.02183156,0.01264555,-0.02991006
 ,0.00015801,-0.00050206,-0.00073267,-0.04346063,0.01523783,0.03208318,
 -0.00205521,0.00223501,0.00332230,-0.28527641,0.09897448,-0.09698276,0
 .66473719,-0.02238497,0.01584079,-0.00121742,0.01196275,-0.01044014,0.
 01838433,-0.00035200,-0.00092792,0.00014626,0.02282289,0.00266893,-0.0
 2054118,0.00220019,0.00455434,-0.00022996,0.08804350,-0.10872443,0.048
 98799,-0.20271301,0.21720319,0.07322273,-0.02145763,-0.03749135,-0.033
 34886,0.02028313,-0.04942063,-0.00080711,0.00012801,-0.00084539,-0.018
 79756,-0.00095761,0.06811011,0.00380712,-0.00047457,-0.00200884,-0.014
 34995,0.01632165,-0.14479208,-0.06776005,-0.05941868,0.72686975,0.0023
 1708,0.00214820,-0.00075374,-0.00011019,-0.00017909,-0.00119127,-0.000
 08162,-0.00024045,0.00003132,-0.00231594,0.00343856,-0.00293866,-0.000
 75213,0.00016297,0.00080831,-0.01530622,0.00556766,0.01895969,-0.23507
 470,0.06057176,0.13476748,0.24301740,0.00173831,0.00616012,0.00229772,
 -0.00019319,-0.00094913,0.00062305,-0.00019627,-0.00056976,-0.00011731
 ,0.00339420,0.00369940,0.00193734,0.00041049,-0.00006326,-0.00041047,0
 .00933530,0.00282874,-0.00842541,0.06074845,-0.05508652,-0.03617158,-0
 .06632341,0.04599916,-0.00100776,0.00196624,-0.00475515,-0.00073789,0.
 00023901,-0.00063400,0.00005368,-0.00011563,0.00001388,-0.00241406,0.0
 0179979,-0.00089321,-0.00065570,0.00015562,0.00052058,-0.01088377,0.00
 354168,0.01110197,0.13651371,-0.03684262,-0.15938544,-0.14659951,0.038
 84458,0.16393938,-0.25814723,0.05922975,0.12461716,-0.05107651,0.02557
 716,-0.02022083,-0.00220474,0.00361527,-0.00269174,-0.01835833,0.00136
 161,0.03371381,0.00001504,-0.00046169,0.00058520,0.04046630,-0.0115552
 2,-0.02864985,-0.12315014,0.02962463,-0.03798602,0.00661069,-0.0045702
 0,0.02407684,0.65371256,0.07020768,-0.08274610,-0.03233063,0.01750503,
 0.00141646,-0.00265493,0.00332422,0.00420821,0.00233445,0.00078498,-0.
 00257313,-0.00369388,-0.00050915,-0.00074399,-0.00022734,-0.00088417,-
 0.00058741,0.01399575,0.01948346,-0.07686804,0.05719890,-0.00118147,0.
 00439990,-0.00758283,-0.20829975,0.23711798,0.06785403,-0.01051192,-0.
 17742535,0.03304721,-0.02316907,0.06601582,-0.00305103,0.00235425,-0.0
 0094881,0.02983284,-0.00298506,-0.06076086,0.00117755,-0.00023739,-0.0
 0096436,-0.09178764,0.03833953,-0.01704631,0.03237110,0.02997835,-0.35
 514996,-0.00263418,0.00297185,-0.01185906,0.00700917,-0.08440972,0.695
 51824,-0.01536265,0.00946326,-0.01038153,-0.00169112,0.00256969,0.0041
 2160,-0.00066451,0.00046559,-0.00067328,0.00029604,-0.00063380,0.00047
 668,-0.00010693,-0.00023529,-0.00011133,0.00222956,0.00243401,0.001290
 19,0.00530765,-0.00035901,0.00163560,-0.00024945,-0.00178433,-0.000463
 02,-0.24747165,0.10106238,-0.10006002,0.25857080,0.00540900,0.00091911
 ,0.00309534,0.00226499,0.00491940,-0.00020762,0.00026009,0.00019157,0.
 00019910,-0.00049297,-0.00084564,-0.00035442,-0.00019016,-0.00057045,-
 0.00005796,0.00198232,0.00701096,0.00111231,0.00295314,0.00323817,0.00
 109410,-0.00166748,-0.00358085,-0.00061490,0.10331771,-0.09054431,0.05
 226149,-0.11280051,0.08288797,0.01303107,-0.00646614,0.01247329,0.0038
 1922,-0.00003469,-0.00217365,0.00087697,-0.00039529,0.00074177,0.00044
 068,-0.00026918,-0.00106569,-0.00009289,-0.00006683,0.00003988,0.00165
 013,0.00128412,-0.00404409,-0.02478285,0.01193420,-0.00765816,-0.00000
 253,-0.00092669,0.00106251,-0.10087890,0.05216933,-0.11197676,0.106570
 74,-0.05662074,0.11472754,-0.07728528,0.00736097,-0.00205725,0.0078626
 1,-0.00187726,-0.01971419,-0.00361450,0.00175839,-0.00374554,-0.004754
 37,0.00399914,-0.00352862,0.00040730,0.00041581,-0.00117524,-0.0041127
 1,0.00166303,-0.00010134,-0.00362031,0.00340191,0.00600728,0.00035736,
 -0.00021520,0.00134270,0.00996571,-0.00634715,0.01712361,-0.00346508,-
 0.00030559,0.00342389,1.08780750,0.00781877,-0.06229248,0.01456474,-0.
 00103955,-0.00292504,0.01045372,-0.00007618,-0.00177065,-0.00008648,0.
 00384416,0.00423166,0.00222103,0.00011261,0.00053054,0.00052511,0.0016
 0856,-0.00057488,0.00075847,0.00364674,0.00437033,-0.00134241,0.000128
 52,0.00076600,-0.00041030,-0.00696782,0.00064845,-0.00277580,0.0013905
 1,-0.00156932,-0.00288637,-0.18012434,0.68687255,-0.00396418,0.0094328
 9,-0.16356321,-0.01504955,0.00740109,-0.01711341,0.00175313,-0.0014040
 2,0.00076856,-0.00126260,0.00078810,0.00702550,0.00021630,-0.00027930,
 0.00112977,0.00012553,0.00136895,-0.00901680,0.00336703,-0.00091655,0.
 00575272,-0.00021762,-0.00006011,0.00094425,0.01155498,-0.00215589,-0.
 02278996,-0.00149804,-0.00001673,0.00041782,-0.07308339,-0.04311186,0.
 52162108,-0.00793374,0.00020643,-0.00299671,-0.00404310,0.00227362,-0.
 00067487,0.00149214,-0.00180150,0.00111578,0.00216388,-0.00038868,0.00
 102044,-0.00004907,-0.00007421,0.00045280,-0.00008338,0.00014939,-0.00
 156076,-0.00031305,0.00030730,0.00015708,0.00007506,-0.00008636,0.0004
 3124,0.00181276,-0.00146542,0.00459454,0.00065663,-0.00036101,-0.00083
 059,-0.54883178,-0.03240145,0.15877124,0.58903699,-0.00489817,0.009751
 83,0.00102163,0.00112579,-0.00001689,-0.00019715,-0.00103312,-0.000203
 69,-0.00012511,-0.00087414,0.00009975,0.00007199,0.00000146,-0.0000478
 3,-0.00006890,0.00025462,-0.00021935,-0.00005853,-0.00120353,-0.000031
 40,-0.00018679,-0.00003521,-0.00020067,0.00011717,0.00124727,0.0004221
 6,0.00216463,-0.00016121,0.00004228,0.00043827,-0.03923877,-0.08922914
 ,0.01533976,0.05443872,0.06716569,0.03187356,0.00276627,-0.00433819,0.
 00085252,0.00080948,-0.00129407,0.00121514,-0.00000963,-0.00154719,0.0
 0054603,-0.00075598,-0.00030152,-0.00005031,0.00006935,-0.00019021,0.0
 0106110,-0.00063700,0.00222470,0.00105551,-0.00139298,-0.00228071,-0.0
 0022173,-0.00002270,-0.00079472,-0.00447218,0.00438672,-0.00456969,0.0
 0038386,0.00033755,0.00011837,0.17029154,0.01636465,-0.14663511,-0.182
 54879,-0.01794713,0.13255126,-0.00110982,0.00987351,0.00300583,0.00182
 592,0.00091006,-0.00300467,0.00076773,-0.00013475,0.00080541,-0.000109
 40,-0.00056784,-0.00061766,-0.00001800,-0.00010472,-0.00037759,-0.0002
 9210,-0.00009837,0.00153246,0.00159553,-0.00113448,-0.00108980,-0.0000
 6346,0.00006969,-0.00040338,-0.00388475,0.00130454,0.00086586,0.001791
 04,-0.00004857,-0.00145529,-0.34616431,0.24982122,-0.06372761,-0.01032
 429,0.02731285,-0.00855141,0.34463203,0.01261825,-0.00129160,-0.002997
 77,-0.00158637,0.00059060,0.00524078,-0.00038636,0.00002653,-0.0001532
 5,0.00105782,-0.00057463,-0.00010740,-0.00009561,-0.00015855,0.0004261
 9,-0.00026375,0.00009415,-0.00115478,-0.00049941,0.00031611,0.00084155
 ,0.00000265,-0.00009976,0.00024962,0.00219135,-0.00007460,-0.00086998,
 -0.00082999,-0.00097182,0.00080226,0.25573749,-0.33169584,0.06498444,-
 0.00767738,0.01271988,0.00360713,-0.28840549,0.35570940,-0.02203508,0.
 02170964,-0.00011867,0.00516129,0.00059463,-0.00475128,-0.00019327,0.0
 0052814,0.00002303,-0.00199437,-0.00018835,-0.00194112,0.00002438,-0.0
 0010943,-0.00074378,-0.00083883,0.00009802,0.00211990,-0.00123855,-0.0
 0000746,0.00005047,0.00006376,0.00001460,-0.00012389,0.00042572,0.0010
 4928,-0.00139471,-0.00150027,0.00083310,-0.00107796,-0.07141169,0.0742
 8330,-0.10683569,0.01287742,-0.00747720,0.01814019,0.07573485,-0.07523
 519,0.08841239,0.00907629,-0.00586020,-0.00142973,-0.00037117,0.000103
 22,0.00019686,0.00013342,-0.00042268,0.00042941,0.00041754,0.00021048,
 0.00060423,-0.00007173,-0.00005794,0.00001305,0.00093341,-0.00053036,0
 .00060418,0.00031394,0.00052091,-0.00132484,-0.00001146,0.00012455,-0.
 00023686,-0.00188235,0.00017897,-0.00129050,0.00001710,-0.00028718,-0.
 00027326,-0.11754952,-0.03575374,-0.02369279,-0.02308125,-0.03690133,-
 0.01089670,0.00894467,0.03178060,0.00703887,0.73423681,-0.00395176,0.0
 0060093,0.00060765,0.00093656,-0.00077154,-0.00201749,-0.00012395,-0.0
 0064639,0.00020898,0.00001685,0.00091931,-0.00101712,-0.00000324,0.000
 05136,-0.00029148,-0.00038811,-0.00025512,0.00119652,0.00027865,0.0007
 2098,-0.00032022,0.00000126,-0.00002644,-0.00020102,-0.00067379,0.0000
 0737,-0.00127103,-0.00041458,-0.00057268,0.00049987,-0.03840050,-0.188
 75543,-0.06970785,-0.00542876,0.00110363,-0.00511008,-0.00249009,-0.02
 993229,-0.01309860,-0.06247609,0.59315680,-0.00937894,-0.02078457,-0.0
 0717577,0.00278664,-0.00278075,-0.00077716,-0.00039640,-0.00055794,-0.
 00042225,0.00127056,0.00151775,-0.00114253,0.00000697,0.00015624,-0.00
 028140,0.00001165,-0.00039800,0.00286515,-0.00017557,0.00203086,-0.000
 84058,0.00005493,0.00012014,-0.00026386,-0.00379938,-0.00029009,-0.000
 04490,-0.00016106,-0.00065362,-0.00037963,-0.01266719,-0.04003688,-0.0
 7737366,0.00874533,0.00837136,0.01085043,-0.00094835,0.00478466,0.0098
 6031,-0.05522104,0.00454923,0.12441786,-0.00090373,-0.00068048,-0.0001
 7814,0.00058102,-0.00015896,-0.00040247,-0.00021810,-0.00013213,-0.000
 09949,-0.00013650,0.00013213,0.00002037,0.00000818,0.00000890,-0.00005
 888,0.00008690,-0.00006978,0.00012080,-0.00011099,0.00007556,-0.000022
 28,0.00000115,0.00001256,-0.00001719,-0.00029244,0.00012786,0.00006077
 ,-0.00005650,-0.00006581,0.00002238,0.01328801,-0.00663261,0.00267561,
 -0.00269346,0.00079844,0.00032447,0.00161798,-0.00604974,-0.00133219,-
 0.21235953,0.17690461,-0.02880376,0.21447065,-0.00112788,0.00112854,0.
 00042565,-0.00002531,0.00022533,-0.00021192,-0.00013744,0.00001894,-0.
 00016956,-0.00016241,-0.00007052,-0.00011528,0.00002349,0.00001130,0.0
 0001327,-0.00024497,0.00015831,-0.00030242,0.00006603,-0.00022732,0.00
 028941,-0.00000343,-0.00002125,0.00003635,0.00048892,0.00026079,-0.000
 04266,-0.00002850,-0.00005347,0.00003685,0.02117235,-0.01949085,0.0077
 1182,-0.00166147,0.00406090,-0.00033799,-0.00111326,-0.00522892,-0.002
 85048,0.18580456,-0.29419132,0.03074956,-0.19366792,0.30251235,-0.0011
 9622,0.00098989,-0.00006153,0.00000360,0.00010968,-0.00035237,-0.00032
 714,-0.00017478,0.00003915,-0.00017802,0.00021423,-0.00031103,0.000003
 49,0.00000396,-0.00002902,-0.00031463,0.00012092,-0.00047353,0.0001282
 7,-0.00021100,0.00033782,-0.00000417,-0.00003019,0.00001153,0.00050002
 ,0.00004379,-0.00025871,0.00001530,0.00001919,0.00012413,0.00539498,-0
 .01820485,-0.00349346,0.00167615,0.00130240,-0.00216787,0.00020848,-0.
 00349402,0.00271422,-0.04856271,0.06401666,-0.01470726,0.03559040,-0.0
 3586169,0.02091874,0.00114747,0.00087584,0.00027503,-0.00042194,0.0004
 6517,-0.00002091,-0.00000399,0.00002850,0.00002922,-0.00022183,-0.0001
 0007,0.00028964,-0.00000933,-0.00002576,0.00003867,0.00025960,-0.00002
 427,-0.00040732,-0.00007007,-0.00009643,-0.00013490,0.00000111,0.00000
 450,0.00004872,0.00053380,-0.00008348,0.00001995,0.00003281,0.00007968
 ,-0.00003065,-0.00992455,-0.00510880,0.00376526,0.00171629,-0.00076886
 ,-0.00075544,0.00044200,0.00251942,-0.00073167,-0.39870471,-0.06370971
 ,0.09887207,-0.01323683,-0.00940676,0.00704450,0.41847040,0.00128810,-
 0.00063079,-0.00002628,0.00007026,0.00030890,0.00002934,-0.00000514,-0
 .00010445,0.00003048,-0.00002148,-0.00011424,0.00018498,-0.00000038,-0
 .00000669,0.00001567,0.00010777,-0.00001352,-0.00014337,0.00015419,-0.
 00011240,-0.00008802,-0.00001205,0.00002712,-0.00002331,-0.00028885,0.
 00030173,-0.00034382,0.00009890,-0.00018223,-0.00022454,-0.02865022,0.
 00166185,0.01252099,-0.00562576,-0.00552807,-0.00266548,0.00461156,0.0
 0065748,-0.00060907,-0.07652196,-0.08157039,0.01288491,0.02936821,0.01
 097670,-0.00877562,0.07540524,0.07437157,0.00143957,-0.00019643,-0.000
 35343,-0.00031914,0.00032239,-0.00017732,0.00002098,0.00000692,0.00012
 260,-0.00014859,-0.00008878,0.00033558,-0.00001344,-0.00002298,0.00000
 746,0.00020784,-0.00008301,-0.00047439,0.00024640,0.00007471,-0.000335
 57,-0.00000550,0.00000792,-0.00003777,-0.00008746,0.00013836,-0.000381
 55,0.00013906,-0.00037524,-0.00001058,-0.01671388,-0.00935579,-0.00143
 365,-0.00262767,-0.00291441,0.00291502,-0.00055158,0.00187277,-0.00189
 987,0.13492789,0.02347462,-0.04098300,-0.00772672,0.00017234,-0.002820
 56,-0.10881583,-0.01296723,0.04505984,0.00448429,-0.00190996,-0.000628
 94,-0.00671333,0.00582482,-0.00259444,0.00027968,-0.00037374,0.0013273
 2,0.00759783,-0.00583312,0.04118302,0.00159040,-0.00200057,-0.00166847
 ,-0.07172635,0.01160314,-0.00685563,0.00473813,0.00750849,-0.04397592,
 0.00158532,-0.00246911,0.00095224,-0.00664872,0.00479148,0.00486673,0.
 00016629,-0.00004764,-0.00148811,-0.00036609,-0.00026660,0.00026672,0.
 00039935,-0.00006480,-0.00010717,0.00034924,-0.00011347,-0.00005036,-0
 .00004145,-0.00007736,-0.00019647,-0.00004579,0.00002400,0.00001768,-0
 .00001022,0.00002161,0.00002807,0.06436143,-0.00192598,-0.00021707,0.0
 0118358,0.00442495,0.00562558,0.00147612,-0.00016456,-0.00024013,-0.00
 033085,-0.00053018,0.00911807,-0.00722639,-0.00210650,-0.00355887,-0.0
 0021012,0.01157269,-0.05535765,0.04612965,0.00229541,0.00350533,0.0242
 6076,-0.00237899,-0.00328279,-0.00115947,0.00616365,0.00535453,-0.0014
 5365,-0.00023711,-0.00031869,0.00072557,-0.00035006,-0.00077773,-0.001
 89574,-0.00040346,0.00011092,0.00053783,0.00019414,-0.00008614,0.00046
 507,0.00008820,0.00016122,0.00033715,0.00002918,-0.00006951,-0.0000685
 6,-0.00005420,-0.00004255,-0.00006616,-0.01661717,0.04007547,-0.000562
 19,0.00136321,-0.00672980,0.00608422,-0.00169574,0.00383052,-0.0004583
 9,0.00022479,-0.00151077,0.00319409,0.00678588,-0.04938452,-0.00053380
 ,-0.00053968,0.00142398,-0.00672881,0.04647099,-0.34441690,-0.00636130
 ,0.00924117,-0.04091217,-0.00011658,-0.00065275,0.00115301,-0.00369655
 ,0.00202875,0.00403694,0.00021552,-0.00005096,-0.00131882,0.00061434,-
 0.00096027,0.01059523,0.00139737,0.00014799,-0.00268070,-0.00142556,0.
 00120298,-0.00243353,-0.00088607,-0.00151865,-0.00360176,-0.00017367,0
 .00045674,0.00052974,0.00051365,0.00020037,0.00046721,0.00892372,-0.06
 270480,0.43095233\\0.00000472,0.00001217,0.00000551,-0.00000297,-0.000
 00031,0.00001975,0.00000075,0.00000455,-0.00000663,0.00000310,0.000001
 55,0.00000420,-0.00000036,-0.00000041,-0.00000365,-0.00000383,-0.00000
 554,-0.00001650,-0.00000042,0.00000278,0.00000500,-0.00000061,-0.00000
 030,-0.00000371,0.00000537,-0.00000337,0.00001857,0.00000133,0.0000043
 4,-0.00000663,-0.00000928,-0.00001616,-0.00003685,0.00002542,-0.000008
 70,0.00000980,-0.00002303,0.00000931,0.00001411,0.00000412,0.00001338,
 -0.00000907,-0.00000912,-0.00000393,-0.00000017,0.00000424,-0.00000892
 ,-0.00000133,0.00000057,-0.00000043,0.00000760\\\@
 The archive entry for this job was punched.


 ACHIEVEMENT--  THE MAN WHO ROWS THE BOAT GENERALLY 
                DOESN'T HAVE TIME TO ROCK IT.

                   -- FROM THE BACK OF A SUGAR PACKET
 Job cpu time:       0 days  0 hours 41 minutes  3.9 seconds.
 Elapsed time:       0 days  0 hours  2 minutes 43.7 seconds.
 File lengths (MBytes):  RWF=    105 Int=      0 D2E=      0 Chk=      5 Scr=      1
 Normal termination of Gaussian 16 at Fri May 20 19:41:25 2022.
