 Entering Gaussian System, Link 0=g16
 AtFile(1): /home/561/yj5695/Basis/6-31pGd.gbs
 Initial command:
 /apps/gaussian/g16c01/g16/l1.exe "/jobfs/40765789.gadi-pbs/Gau-3910318.inp" -scrdir="/jobfs/40765789.gadi-pbs/"
 Entering Link 1 = /apps/gaussian/g16c01/g16/l1.exe PID=   3910319.
  
 Copyright (c) 1988-2019, Gaussian, Inc.  All Rights Reserved.
  
 This is part of the Gaussian(R) 16 program.  It is based on
 the Gaussian(R) 09 system (copyright 2009, Gaussian, Inc.),
 the Gaussian(R) 03 system (copyright 2003, Gaussian, Inc.),
 the Gaussian(R) 98 system (copyright 1998, Gaussian, Inc.),
 the Gaussian(R) 94 system (copyright 1995, Gaussian, Inc.),
 the Gaussian 92(TM) system (copyright 1992, Gaussian, Inc.),
 the Gaussian 90(TM) system (copyright 1990, Gaussian, Inc.),
 the Gaussian 88(TM) system (copyright 1988, Gaussian, Inc.),
 the Gaussian 86(TM) system (copyright 1986, Carnegie Mellon
 University), and the Gaussian 82(TM) system (copyright 1983,
 Carnegie Mellon University). Gaussian is a federally registered
 trademark of Gaussian, Inc.
  
 This software contains proprietary and confidential information,
 including trade secrets, belonging to Gaussian, Inc.
  
 This software is provided under written license and may be
 used, copied, transmitted, or stored only in accord with that
 written license.
  
 The following legend is applicable only to US Government
 contracts under FAR:
  
                    RESTRICTED RIGHTS LEGEND
  
 Use, reproduction and disclosure by the US Government is
 subject to restrictions as set forth in subparagraphs (a)
 and (c) of the Commercial Computer Software - Restricted
 Rights clause in FAR 52.227-19.
  
 Gaussian, Inc.
 340 Quinnipiac St., Bldg. 40, Wallingford CT 06492
  
  
 ---------------------------------------------------------------
 Warning -- This program may not be used in any manner that
 competes with the business of Gaussian, Inc. or will provide
 assistance to any competitor of Gaussian, Inc.  The licensee
 of this program is prohibited from giving any competitor of
 Gaussian, Inc. access to this program.  By using this program,
 the user acknowledges that Gaussian, Inc. is engaged in the
 business of creating and licensing software in the field of
 computational chemistry and represents and warrants to the
 licensee that it is not a competitor of Gaussian, Inc. and that
 it will not use this program in any manner prohibited above.
 ---------------------------------------------------------------
  

 Cite this work as:
 Gaussian 16, Revision C.01,
 M. J. Frisch, G. W. Trucks, H. B. Schlegel, G. E. Scuseria, 
 M. A. Robb, J. R. Cheeseman, G. Scalmani, V. Barone, 
 G. A. Petersson, H. Nakatsuji, X. Li, M. Caricato, A. V. Marenich, 
 J. Bloino, B. G. Janesko, R. Gomperts, B. Mennucci, H. P. Hratchian, 
 J. V. Ortiz, A. F. Izmaylov, J. L. Sonnenberg, D. Williams-Young, 
 F. Ding, F. Lipparini, F. Egidi, J. Goings, B. Peng, A. Petrone, 
 T. Henderson, D. Ranasinghe, V. G. Zakrzewski, J. Gao, N. Rega, 
 G. Zheng, W. Liang, M. Hada, M. Ehara, K. Toyota, R. Fukuda, 
 J. Hasegawa, M. Ishida, T. Nakajima, Y. Honda, O. Kitao, H. Nakai, 
 T. Vreven, K. Throssell, J. A. Montgomery, Jr., J. E. Peralta, 
 F. Ogliaro, M. J. Bearpark, J. J. Heyd, E. N. Brothers, K. N. Kudin, 
 V. N. Staroverov, T. A. Keith, R. Kobayashi, J. Normand, 
 K. Raghavachari, A. P. Rendell, J. C. Burant, S. S. Iyengar, 
 J. Tomasi, M. Cossi, J. M. Millam, M. Klene, C. Adamo, R. Cammi, 
 J. W. Ochterski, R. L. Martin, K. Morokuma, O. Farkas, 
 J. B. Foresman, and D. J. Fox, Gaussian, Inc., Wallingford CT, 2019.
 
 ******************************************
 Gaussian 16:  ES64L-G16RevC.01  3-Jul-2019
                20-May-2022 
 ******************************************
 %nproc=16
 Will use up to   16 processors via shared memory.
 %mem=20gb
 --------------------------------------------------
 #M062X/gen 6D INT(grid=ultrafine) OPT Freq=noraman
 --------------------------------------------------
 1/18=20,19=15,26=4,38=1/1,3;
 2/9=110,12=2,17=6,18=5,40=1/2;
 3/5=7,8=2,11=2,25=1,30=1,71=1,74=-55,75=-5/1,2,3;
 4//1;
 5/5=2,38=5/2;
 6/7=2,8=2,9=2,10=2,28=1/1;
 7//1,2,3,16;
 1/18=20,19=15,26=4/3(2);
 2/9=110/2;
 99//99;
 2/9=110/2;
 3/5=7,6=1,8=2,11=2,25=1,30=1,71=1,74=-55,75=-5,82=7/1,2,3;
 4/5=5,16=3,69=1/1;
 5/5=2,38=5/2;
 7//1,2,3,16;
 1/18=20,19=15,26=4/3(-5);
 2/9=110/2;
 6/7=2,8=2,9=2,10=2,19=2,28=1/1;
 99/9=1/99;
 ------------
 HA.8.a3.freq
 ------------
 Symbolic Z-matrix:
 Charge =  0 Multiplicity = 1
 C                    -1.5242    0.67286  -0.78474 
 C                    -2.65558   0.91916  -1.55871 
 F                    -3.86494   1.06004  -1.02779 
 C                    -2.55781   1.02158  -2.9404 
 F                    -3.64732   1.25595  -3.66708 
 C                    -1.32916   0.88036  -3.5648 
 C                    -0.18961   0.63508  -2.81041 
 F                     0.99093   0.50139  -3.40746 
 C                    -0.29986   0.53259  -1.43664 
 F                     0.80729   0.30461  -0.72803 
 S                    -1.54875   0.50721   1.00105 
 O                    -2.89445   0.82423   1.44894 
 O                    -0.95737  -0.78849   1.30381 
 N                    -0.5512    1.64443   1.61901 
 H                    -0.85565   2.5992    1.41813 
 F                    -1.24026   0.97972  -4.8835 
 H                     0.43179   1.49435   1.38492 
 

 GradGradGradGradGradGradGradGradGradGradGradGradGradGradGradGradGradGrad
 Berny optimization.
 Initialization pass.
                           ----------------------------
                           !    Initial Parameters    !
                           ! (Angstroms and Degrees)  !
 --------------------------                            --------------------------
 ! Name  Definition              Value          Derivative Info.                !
 --------------------------------------------------------------------------------
 ! R1    R(1,2)                  1.3927         estimate D2E/DX2                !
 ! R2    R(1,9)                  1.3941         estimate D2E/DX2                !
 ! R3    R(1,11)                 1.7936         estimate D2E/DX2                !
 ! R4    R(2,3)                  1.3283         estimate D2E/DX2                !
 ! R5    R(2,4)                  1.3889         estimate D2E/DX2                !
 ! R6    R(4,5)                  1.3304         estimate D2E/DX2                !
 ! R7    R(4,6)                  1.3854         estimate D2E/DX2                !
 ! R8    R(6,7)                  1.3885         estimate D2E/DX2                !
 ! R9    R(6,16)                 1.3254         estimate D2E/DX2                !
 ! R10   R(7,8)                  1.3297         estimate D2E/DX2                !
 ! R11   R(7,9)                  1.382          estimate D2E/DX2                !
 ! R12   R(9,10)                 1.3341         estimate D2E/DX2                !
 ! R13   R(11,12)                1.4533         estimate D2E/DX2                !
 ! R14   R(11,13)                1.4561         estimate D2E/DX2                !
 ! R15   R(11,14)                1.6341         estimate D2E/DX2                !
 ! R16   R(14,15)                1.0221         estimate D2E/DX2                !
 ! R17   R(14,17)                1.0216         estimate D2E/DX2                !
 ! A1    A(2,1,9)              118.1212         estimate D2E/DX2                !
 ! A2    A(2,1,11)             123.9525         estimate D2E/DX2                !
 ! A3    A(9,1,11)             117.9229         estimate D2E/DX2                !
 ! A4    A(1,2,3)              122.4293         estimate D2E/DX2                !
 ! A5    A(1,2,4)              120.576          estimate D2E/DX2                !
 ! A6    A(3,2,4)              116.994          estimate D2E/DX2                !
 ! A7    A(2,4,5)              119.914          estimate D2E/DX2                !
 ! A8    A(2,4,6)              120.2157         estimate D2E/DX2                !
 ! A9    A(5,4,6)              119.8703         estimate D2E/DX2                !
 ! A10   A(4,6,7)              120.0649         estimate D2E/DX2                !
 ! A11   A(4,6,16)             120.0165         estimate D2E/DX2                !
 ! A12   A(7,6,16)             119.9186         estimate D2E/DX2                !
 ! A13   A(6,7,8)              120.1634         estimate D2E/DX2                !
 ! A14   A(6,7,9)              119.1911         estimate D2E/DX2                !
 ! A15   A(8,7,9)              120.6455         estimate D2E/DX2                !
 ! A16   A(1,9,7)              121.8309         estimate D2E/DX2                !
 ! A17   A(1,9,10)             119.8426         estimate D2E/DX2                !
 ! A18   A(7,9,10)             118.3237         estimate D2E/DX2                !
 ! A19   A(1,11,12)            107.4203         estimate D2E/DX2                !
 ! A20   A(1,11,13)            106.4777         estimate D2E/DX2                !
 ! A21   A(1,11,14)            107.6913         estimate D2E/DX2                !
 ! A22   A(12,11,13)           120.4047         estimate D2E/DX2                !
 ! A23   A(12,11,14)           107.2718         estimate D2E/DX2                !
 ! A24   A(13,11,14)           107.0203         estimate D2E/DX2                !
 ! A25   A(11,14,15)           113.2001         estimate D2E/DX2                !
 ! A26   A(11,14,17)           113.4852         estimate D2E/DX2                !
 ! A27   A(15,14,17)           112.2612         estimate D2E/DX2                !
 ! D1    D(9,1,2,3)            179.6352         estimate D2E/DX2                !
 ! D2    D(9,1,2,4)             -0.0422         estimate D2E/DX2                !
 ! D3    D(11,1,2,3)             0.324          estimate D2E/DX2                !
 ! D4    D(11,1,2,4)          -179.3533         estimate D2E/DX2                !
 ! D5    D(2,1,9,7)              0.1743         estimate D2E/DX2                !
 ! D6    D(2,1,9,10)           179.5657         estimate D2E/DX2                !
 ! D7    D(11,1,9,7)           179.5276         estimate D2E/DX2                !
 ! D8    D(11,1,9,10)           -1.081          estimate D2E/DX2                !
 ! D9    D(2,1,11,12)           -6.2705         estimate D2E/DX2                !
 ! D10   D(2,1,11,13)          123.9673         estimate D2E/DX2                !
 ! D11   D(2,1,11,14)         -121.5292         estimate D2E/DX2                !
 ! D12   D(9,1,11,12)          174.4171         estimate D2E/DX2                !
 ! D13   D(9,1,11,13)          -55.3452         estimate D2E/DX2                !
 ! D14   D(9,1,11,14)           59.1584         estimate D2E/DX2                !
 ! D15   D(1,2,4,5)            179.9403         estimate D2E/DX2                !
 ! D16   D(1,2,4,6)             -0.0548         estimate D2E/DX2                !
 ! D17   D(3,2,4,5)              0.2459         estimate D2E/DX2                !
 ! D18   D(3,2,4,6)           -179.7492         estimate D2E/DX2                !
 ! D19   D(2,4,6,7)              0.0245         estimate D2E/DX2                !
 ! D20   D(2,4,6,16)          -179.9549         estimate D2E/DX2                !
 ! D21   D(5,4,6,7)           -179.9706         estimate D2E/DX2                !
 ! D22   D(5,4,6,16)             0.05           estimate D2E/DX2                !
 ! D23   D(4,6,7,8)           -179.8894         estimate D2E/DX2                !
 ! D24   D(4,6,7,9)              0.1031         estimate D2E/DX2                !
 ! D25   D(16,6,7,8)             0.0899         estimate D2E/DX2                !
 ! D26   D(16,6,7,9)          -179.9175         estimate D2E/DX2                !
 ! D27   D(6,7,9,1)             -0.2056         estimate D2E/DX2                !
 ! D28   D(6,7,9,10)          -179.606          estimate D2E/DX2                !
 ! D29   D(8,7,9,1)            179.7869         estimate D2E/DX2                !
 ! D30   D(8,7,9,10)             0.3865         estimate D2E/DX2                !
 ! D31   D(1,11,14,15)          62.9962         estimate D2E/DX2                !
 ! D32   D(1,11,14,17)         -66.4694         estimate D2E/DX2                !
 ! D33   D(12,11,14,15)        -52.3606         estimate D2E/DX2                !
 ! D34   D(12,11,14,17)        178.1738         estimate D2E/DX2                !
 ! D35   D(13,11,14,15)        177.1384         estimate D2E/DX2                !
 ! D36   D(13,11,14,17)         47.6728         estimate D2E/DX2                !
 --------------------------------------------------------------------------------
 Trust Radius=3.00D-01 FncErr=1.00D-07 GrdErr=1.00D-06 EigMax=2.50D+02 EigMin=1.00D-04
 Number of steps in this run=     90 maximum allowed number of steps=    102.
 GradGradGradGradGradGradGradGradGradGradGradGradGradGradGradGradGradGrad

                          Input orientation:                          
 ---------------------------------------------------------------------
 Center     Atomic      Atomic             Coordinates (Angstroms)
 Number     Number       Type             X           Y           Z
 ---------------------------------------------------------------------
      1          6           0       -1.524199    0.672859   -0.784742
      2          6           0       -2.655581    0.919162   -1.558711
      3          9           0       -3.864941    1.060040   -1.027794
      4          6           0       -2.557810    1.021579   -2.940403
      5          9           0       -3.647323    1.255954   -3.667083
      6          6           0       -1.329163    0.880359   -3.564804
      7          6           0       -0.189615    0.635077   -2.810406
      8          9           0        0.990926    0.501392   -3.407458
      9          6           0       -0.299865    0.532591   -1.436642
     10          9           0        0.807290    0.304610   -0.728027
     11         16           0       -1.548746    0.507208    1.001046
     12          8           0       -2.894446    0.824233    1.448944
     13          8           0       -0.957371   -0.788487    1.303807
     14          7           0       -0.551200    1.644430    1.619005
     15          1           0       -0.855649    2.599195    1.418126
     16          9           0       -1.240263    0.979723   -4.883497
     17          1           0        0.431787    1.494350    1.384917
 ---------------------------------------------------------------------
                    Distance matrix (angstroms):
                    1          2          3          4          5
     1  C    0.000000
     2  C    1.392738   0.000000
     3  F    2.384965   1.328259   0.000000
     4  C    2.415954   1.388928   2.316925   0.000000
     5  F    3.627057   2.354191   2.655482   1.330426   0.000000
     6  C    2.794609   2.405264   3.591500   1.385422   2.350616
     7  C    2.426079   2.780006   4.106863   2.403047   3.615955
     8  F    3.637842   4.109673   5.436390   3.616942   4.706392
     9  C    1.394146   2.390342   3.627000   2.756578   4.087003
    10  F    2.361072   3.613749   4.742391   4.090544   5.420948
    11  S    1.793622   2.819068   3.128350   4.100952   5.172627
    12  O    2.624851   3.018619   2.670524   4.406658   5.189118
    13  O    2.611295   3.740854   4.160214   4.883755   6.010435
    14  N    2.769238   3.879731   4.281114   5.020222   6.138373
    15  H    3.001726   3.863137   4.172213   4.937915   5.954586
    16  F    4.120022   3.614000   4.664958   2.348042   2.711071
    17  H    3.034494   4.304373   4.946885   5.279167   6.497590
                    6          7          8          9         10
     6  C    0.000000
     7  C    1.388470   0.000000
     8  F    2.356096   1.329669   0.000000
     9  C    2.389450   1.381986   2.356105   0.000000
    10  F    3.597669   2.332238   2.692916   1.334130   0.000000
    11  S    4.586332   4.048550   5.087718   2.739100   2.929444
    12  O    5.252707   5.049154   6.227759   3.891467   4.325743
    13  O    5.160101   4.420716   5.258865   3.112494   2.904692
    14  N    5.297255   4.557327   5.380523   3.261340   3.024760
    15  H    5.292278   4.709761   5.576458   3.567836   3.554779
    16  F    1.325416   2.349542   2.717664   3.600706   4.681472
    17  H    5.289392   4.327266   4.925999   3.069445   2.453775
                   11         12         13         14         15
    11  S    0.000000
    12  O    1.453281   0.000000
    13  O    1.456095   2.524716   0.000000
    14  N    1.634089   2.488462   2.486646   0.000000
    15  H    2.242934   2.703356   3.391136   1.022066   0.000000
    16  F    5.911537   6.546779   6.441221   6.572608   6.517751
    17  H    2.245956   3.393668   2.673515   1.021561   1.696843
                   16         17
    16  F    0.000000
    17  H    6.507965   0.000000
 Stoichiometry    C6H2F5NO2S
 Framework group  C1[X(C6H2F5NO2S)]
 Deg. of freedom    45
 Full point group                 C1      NOp   1
 Largest Abelian subgroup         C1      NOp   1
 Largest concise Abelian subgroup C1      NOp   1
                         Standard orientation:                         
 ---------------------------------------------------------------------
 Center     Atomic      Atomic             Coordinates (Angstroms)
 Number     Number       Type             X           Y           Z
 ---------------------------------------------------------------------
      1          6           0       -0.446023    0.094157   -0.041961
      2          6           0        0.341501    1.242583   -0.016643
      3          9           0       -0.179962    2.464172   -0.024790
      4          6           0        1.726958    1.148708    0.011968
      5          9           0        2.466550    2.254383    0.034747
      6          6           0        2.341703   -0.092847    0.016769
      7          6           0        1.573780   -1.249373   -0.007554
      8          9           0        2.161688   -2.441991   -0.000780
      9          6           0        0.196224   -1.143239   -0.038598
     10          9           0       -0.524925   -2.265568   -0.053570
     11         16           0       -2.238745    0.109850   -0.096576
     12          8           0       -2.666214    1.491760    0.043503
     13          8           0       -2.623069   -0.665313   -1.267742
     14          7           0       -2.782587   -0.701403    1.213520
     15          1           0       -2.521498   -0.259852    2.097536
     16          9           0        3.664090   -0.177838    0.045012
     17          1           0       -2.558047   -1.697852    1.197480
 ---------------------------------------------------------------------
 Rotational constants (GHZ):           0.8454258           0.4363107           0.3061199
 General basis read from cards:  (6D, 7F)
 There are   293 symmetry adapted cartesian basis functions of A   symmetry.
 There are   293 symmetry adapted basis functions of A   symmetry.
   293 basis functions,   512 primitive gaussians,   293 cartesian basis functions
    61 alpha electrons       61 beta electrons
       nuclear repulsion energy      1244.6564138941 Hartrees.
 NAtoms=   17 NActive=   17 NUniq=   17 SFac= 1.00D+00 NAtFMM=   60 NAOKFM=F Big=F
 Integral buffers will be    131072 words long.
 Raffenetti 2 integral format.
 Two-electron integral symmetry is turned on.
 One-electron integrals computed using PRISM.
 NBasis=   293 RedAO= T EigKep=  1.49D-06  NBF=   293
 NBsUse=   293 1.00D-06 EigRej= -1.00D+00 NBFU=   293
 ExpMin= 4.05D-02 ExpMax= 2.19D+04 ExpMxC= 3.30D+03 IAcc=3 IRadAn=         5 AccDes= 0.00D+00
 Harris functional with IExCor= 1009 and IRadAn=       5 diagonalized for initial guess.
 HarFok:  IExCor= 1009 AccDes= 0.00D+00 IRadAn=         5 IDoV= 1 UseB2=F ITyADJ=14
 ICtDFT=  3500011 ScaDFX=  1.000000  1.000000  1.000000  1.000000
 FoFCou: FMM=F IPFlag=           0 FMFlag=      100000 FMFlg1=           0
         NFxFlg=           0 DoJE=T BraDBF=F KetDBF=T FulRan=T
         wScrn=  0.000000 ICntrl=       500 IOpCl=  0 I1Cent=   200000004 NGrid=           0
         NMat0=    1 NMatS0=      1 NMatT0=    0 NMatD0=    1 NMtDS0=    0 NMtDT0=    0
 Petite list used in FoFCou.
 Requested convergence on RMS density matrix=1.00D-08 within 128 cycles.
 Requested convergence on MAX density matrix=1.00D-06.
 Requested convergence on             energy=1.00D-06.
 No special actions if energy rises.
 SCF Done:  E(RM062X) =  -1331.97603665     A.U. after   15 cycles
            NFock= 15  Conv=0.86D-08     -V/T= 2.0064

 **********************************************************************

            Population analysis using the SCF Density.

 **********************************************************************

 Orbital symmetries:
       Occupied  (A) (A) (A) (A) (A) (A) (A) (A) (A) (A) (A) (A)
                 (A) (A) (A) (A) (A) (A) (A) (A) (A) (A) (A) (A)
                 (A) (A) (A) (A) (A) (A) (A) (A) (A) (A) (A) (A)
                 (A) (A) (A) (A) (A) (A) (A) (A) (A) (A) (A) (A)
                 (A) (A) (A) (A) (A) (A) (A) (A) (A) (A) (A) (A)
                 (A)
       Virtual   (A) (A) (A) (A) (A) (A) (A) (A) (A) (A) (A) (A)
                 (A) (A) (A) (A) (A) (A) (A) (A) (A) (A) (A) (A)
                 (A) (A) (A) (A) (A) (A) (A) (A) (A) (A) (A) (A)
                 (A) (A) (A) (A) (A) (A) (A) (A) (A) (A) (A) (A)
                 (A) (A) (A) (A) (A) (A) (A) (A) (A) (A) (A) (A)
                 (A) (A) (A) (A) (A) (A) (A) (A) (A) (A) (A) (A)
                 (A) (A) (A) (A) (A) (A) (A) (A) (A) (A) (A) (A)
                 (A) (A) (A) (A) (A) (A) (A) (A) (A) (A) (A) (A)
                 (A) (A) (A) (A) (A) (A) (A) (A) (A) (A) (A) (A)
                 (A) (A) (A) (A) (A) (A) (A) (A) (A) (A) (A) (A)
                 (A) (A) (A) (A) (A) (A) (A) (A) (A) (A) (A) (A)
                 (A) (A) (A) (A) (A) (A) (A) (A) (A) (A) (A) (A)
                 (A) (A) (A) (A) (A) (A) (A) (A) (A) (A) (A) (A)
                 (A) (A) (A) (A) (A) (A) (A) (A) (A) (A) (A) (A)
                 (A) (A) (A) (A) (A) (A) (A) (A) (A) (A) (A) (A)
                 (A) (A) (A) (A) (A) (A) (A) (A) (A) (A) (A) (A)
                 (A) (A) (A) (A) (A) (A) (A) (A) (A) (A) (A) (A)
                 (A) (A) (A) (A) (A) (A) (A) (A) (A) (A) (A) (A)
                 (A) (A) (A) (A) (A) (A) (A) (A) (A) (A) (A) (A)
                 (A) (A) (A) (A)
 The electronic state is 1-A.
 Alpha  occ. eigenvalues --  -90.20213 -25.34513 -25.34315 -25.33881 -25.33515
 Alpha  occ. eigenvalues --  -25.32897 -19.66676 -19.66547 -14.83470 -10.71708
 Alpha  occ. eigenvalues --  -10.71650 -10.71625 -10.70823 -10.70598 -10.64848
 Alpha  occ. eigenvalues --   -8.51007  -6.43225  -6.43155  -6.43147  -1.45071
 Alpha  occ. eigenvalues --   -1.44450  -1.43594  -1.42848  -1.42092  -1.27210
 Alpha  occ. eigenvalues --   -1.15253  -1.06380  -1.05521  -0.94135  -0.92522
 Alpha  occ. eigenvalues --   -0.82809  -0.79988  -0.76506  -0.72611  -0.72520
 Alpha  occ. eigenvalues --   -0.70634  -0.67021  -0.66802  -0.66069  -0.65735
 Alpha  occ. eigenvalues --   -0.65117  -0.64102  -0.63282  -0.62249  -0.60435
 Alpha  occ. eigenvalues --   -0.59875  -0.59461  -0.57878  -0.57443  -0.55019
 Alpha  occ. eigenvalues --   -0.53804  -0.53371  -0.50250  -0.47875  -0.44194
 Alpha  occ. eigenvalues --   -0.42627  -0.42024  -0.40840  -0.40268  -0.36209
 Alpha  occ. eigenvalues --   -0.35204
 Alpha virt. eigenvalues --   -0.04855  -0.03347  -0.01951  -0.00273   0.01368
 Alpha virt. eigenvalues --    0.02893   0.03410   0.04408   0.05164   0.05704
 Alpha virt. eigenvalues --    0.05970   0.06832   0.07074   0.07727   0.08040
 Alpha virt. eigenvalues --    0.08440   0.09487   0.09725   0.11131   0.11694
 Alpha virt. eigenvalues --    0.11806   0.12718   0.12929   0.13371   0.13614
 Alpha virt. eigenvalues --    0.14511   0.15599   0.16084   0.16459   0.17320
 Alpha virt. eigenvalues --    0.17878   0.18181   0.18608   0.18983   0.19536
 Alpha virt. eigenvalues --    0.20272   0.20700   0.22210   0.22511   0.22719
 Alpha virt. eigenvalues --    0.24594   0.25349   0.26154   0.27534   0.28136
 Alpha virt. eigenvalues --    0.28329   0.28840   0.30481   0.31288   0.31627
 Alpha virt. eigenvalues --    0.32182   0.32749   0.33668   0.33965   0.34042
 Alpha virt. eigenvalues --    0.34899   0.35548   0.36234   0.37197   0.37953
 Alpha virt. eigenvalues --    0.38094   0.38973   0.39482   0.40099   0.40630
 Alpha virt. eigenvalues --    0.41439   0.41910   0.42337   0.43576   0.44155
 Alpha virt. eigenvalues --    0.45307   0.46332   0.48512   0.50143   0.52989
 Alpha virt. eigenvalues --    0.53485   0.54234   0.55452   0.56326   0.59828
 Alpha virt. eigenvalues --    0.61231   0.63294   0.66308   0.67229   0.68640
 Alpha virt. eigenvalues --    0.69254   0.70203   0.70952   0.73400   0.75946
 Alpha virt. eigenvalues --    0.77222   0.78904   0.81505   0.86066   0.90484
 Alpha virt. eigenvalues --    0.92201   0.95938   0.96970   0.98493   0.99502
 Alpha virt. eigenvalues --    1.02701   1.03260   1.04855   1.06971   1.10386
 Alpha virt. eigenvalues --    1.11564   1.12799   1.15253   1.15830   1.18771
 Alpha virt. eigenvalues --    1.20272   1.20695   1.22374   1.25540   1.26864
 Alpha virt. eigenvalues --    1.26996   1.27999   1.30166   1.30975   1.32418
 Alpha virt. eigenvalues --    1.33762   1.34607   1.36823   1.38029   1.38377
 Alpha virt. eigenvalues --    1.40841   1.42317   1.45297   1.47720   1.49938
 Alpha virt. eigenvalues --    1.58519   1.63182   1.63465   1.64454   1.65998
 Alpha virt. eigenvalues --    1.66411   1.66972   1.68347   1.69952   1.70714
 Alpha virt. eigenvalues --    1.70937   1.72197   1.73454   1.74314   1.75053
 Alpha virt. eigenvalues --    1.76183   1.77045   1.77854   1.79310   1.79589
 Alpha virt. eigenvalues --    1.79817   1.80114   1.80449   1.81795   1.82576
 Alpha virt. eigenvalues --    1.83356   1.84458   1.84830   1.86098   1.86769
 Alpha virt. eigenvalues --    1.87357   1.87660   1.87992   1.90235   1.90802
 Alpha virt. eigenvalues --    1.91131   1.93624   1.93742   1.96193   1.97961
 Alpha virt. eigenvalues --    1.99101   2.01162   2.03852   2.06946   2.09912
 Alpha virt. eigenvalues --    2.10686   2.14328   2.15901   2.16246   2.17303
 Alpha virt. eigenvalues --    2.19134   2.22114   2.24814   2.26178   2.27336
 Alpha virt. eigenvalues --    2.27845   2.31586   2.33699   2.34779   2.35587
 Alpha virt. eigenvalues --    2.36391   2.38740   2.39380   2.41101   2.44339
 Alpha virt. eigenvalues --    2.46029   2.48226   2.50489   2.57212   2.57833
 Alpha virt. eigenvalues --    2.62598   2.62795   2.74105   2.74394   2.83030
 Alpha virt. eigenvalues --    2.89940   2.95995   3.01286   3.03795   3.07501
 Alpha virt. eigenvalues --    3.17116   3.19613   3.25550   3.32901   3.35408
 Alpha virt. eigenvalues --    3.39263   3.57046   3.88058   4.04247   4.20902
 Alpha virt. eigenvalues --    4.24246   4.26385   4.28933   4.33910   4.47248
 Alpha virt. eigenvalues --    4.51179   4.87696   5.32793   5.87039   6.41440
 Alpha virt. eigenvalues --    6.90927   7.99817
          Condensed to atoms (all electrons):
               1          2          3          4          5          6
     1  C   27.135897  -4.481900  -0.019426  -1.988945  -0.134066  -4.555069
     2  C   -4.481900  25.428486   0.184806  -2.734737  -0.011647  -0.620380
     3  F   -0.019426   0.184806   9.305127  -0.018806  -0.006596  -0.065325
     4  C   -1.988945  -2.734737  -0.018806  14.574588   0.108841  -1.376932
     5  F   -0.134066  -0.011647  -0.006596   0.108841   9.358772   0.046573
     6  C   -4.555069  -0.620380  -0.065325  -1.376932   0.046573  12.609500
     7  C    0.763757  -2.639063   0.020284   1.339898  -0.101098  -2.294398
     8  F   -0.094832   0.039909   0.000063  -0.085157   0.000007   0.024615
     9  C   -8.261285  -8.757747  -0.082496  -4.241784   0.045967   1.421425
    10  F    0.088658   0.013999  -0.000488   0.025350   0.000059  -0.052552
    11  S   -1.578200  -0.117429  -0.031376  -0.279232   0.002486   0.330363
    12  O   -0.420027  -0.277017  -0.006985   0.122353   0.000463   0.023030
    13  O   -0.042594   0.107383  -0.002601   0.001775   0.000094   0.027888
    14  N    0.228978   0.298949   0.000711   0.061455  -0.000008  -0.051169
    15  H   -0.043746  -0.047113   0.000191  -0.012832   0.000002   0.004965
    16  F    0.028153  -0.094878  -0.000050   0.012777  -0.006962   0.071283
    17  H   -0.102125  -0.038302  -0.000043   0.003608  -0.000000   0.001435
               7          8          9         10         11         12
     1  C    0.763757  -0.094832  -8.261285   0.088658  -1.578200  -0.420027
     2  C   -2.639063   0.039909  -8.757747   0.013999  -0.117429  -0.277017
     3  F    0.020284   0.000063  -0.082496  -0.000488  -0.031376  -0.006985
     4  C    1.339898  -0.085157  -4.241784   0.025350  -0.279232   0.122353
     5  F   -0.101098   0.000007   0.045967   0.000059   0.002486   0.000463
     6  C   -2.294398   0.024615   1.421425  -0.052552   0.330363   0.023030
     7  C   16.752503   0.061735  -8.127122   0.058050  -0.239466   0.087327
     8  F    0.061735   9.365392   0.006613  -0.006799   0.000741   0.000060
     9  C   -8.127122   0.006613  32.525644  -0.144155   1.333677   0.304749
    10  F    0.058050  -0.006799  -0.144155   9.351648  -0.018419  -0.000090
    11  S   -0.239466   0.000741   1.333677  -0.018419  14.741541   0.253399
    12  O    0.087327   0.000060   0.304749  -0.000090   0.253399   8.720995
    13  O   -0.160343   0.000047  -0.037843  -0.022027   0.382688  -0.159533
    14  N   -0.042226  -0.000047  -0.640104   0.025217  -0.259239  -0.109420
    15  H   -0.016449  -0.000001   0.080539  -0.001567   0.071449  -0.007714
    16  F    0.030465  -0.007495  -0.081346  -0.000181  -0.000385   0.000004
    17  H    0.048010  -0.000000   0.079790   0.002159   0.026410   0.011414
              13         14         15         16         17
     1  C   -0.042594   0.228978  -0.043746   0.028153  -0.102125
     2  C    0.107383   0.298949  -0.047113  -0.094878  -0.038302
     3  F   -0.002601   0.000711   0.000191  -0.000050  -0.000043
     4  C    0.001775   0.061455  -0.012832   0.012777   0.003608
     5  F    0.000094  -0.000008   0.000002  -0.006962  -0.000000
     6  C    0.027888  -0.051169   0.004965   0.071283   0.001435
     7  C   -0.160343  -0.042226  -0.016449   0.030465   0.048010
     8  F    0.000047  -0.000047  -0.000001  -0.007495  -0.000000
     9  C   -0.037843  -0.640104   0.080539  -0.081346   0.079790
    10  F   -0.022027   0.025217  -0.001567  -0.000181   0.002159
    11  S    0.382688  -0.259239   0.071449  -0.000385   0.026410
    12  O   -0.159533  -0.109420  -0.007714   0.000004   0.011414
    13  O    8.549987  -0.174824   0.008459   0.000009  -0.000351
    14  N   -0.174824   8.175212   0.227922   0.000028   0.222320
    15  H    0.008459   0.227922   0.304778  -0.000000  -0.019433
    16  F    0.000009   0.000028  -0.000000   9.348960   0.000000
    17  H   -0.000351   0.222320  -0.019433   0.000000   0.307299
 Mulliken charges:
               1
     1  C   -0.523228
     2  C   -0.253319
     3  F   -0.276991
     4  C    0.487779
     5  F   -0.302887
     6  C    0.454750
     7  C    0.458136
     8  F   -0.304853
     9  C    0.575480
    10  F   -0.318860
    11  S    1.380993
    12  O   -0.543010
    13  O   -0.478214
    14  N   -0.963755
    15  H    0.450552
    16  F   -0.300382
    17  H    0.457809
 Sum of Mulliken charges =  -0.00000
 Mulliken charges with hydrogens summed into heavy atoms:
               1
     1  C   -0.523228
     2  C   -0.253319
     3  F   -0.276991
     4  C    0.487779
     5  F   -0.302887
     6  C    0.454750
     7  C    0.458136
     8  F   -0.304853
     9  C    0.575480
    10  F   -0.318860
    11  S    1.380993
    12  O   -0.543010
    13  O   -0.478214
    14  N   -0.055394
    16  F   -0.300382
 Electronic spatial extent (au):  <R**2>=           3208.8153
 Charge=             -0.0000 electrons
 Dipole moment (field-independent basis, Debye):
    X=              2.2820    Y=             -2.0314    Z=              3.6270  Tot=              4.7423
 Quadrupole moment (field-independent basis, Debye-Ang):
   XX=           -103.5447   YY=            -95.8884   ZZ=            -83.7077
   XY=              5.4787   XZ=             -9.3608   YZ=             -3.6020
 Traceless Quadrupole moment (field-independent basis, Debye-Ang):
   XX=             -9.1644   YY=             -1.5082   ZZ=             10.6726
   XY=              5.4787   XZ=             -9.3608   YZ=             -3.6020
 Octapole moment (field-independent basis, Debye-Ang**2):
  XXX=             47.8723  YYY=            -11.7034  ZZZ=             14.9968  XYY=              5.1584
  XXY=            -13.4442  XXZ=             18.7023  XZZ=              5.5946  YZZ=              0.1638
  YYZ=              4.0117  XYZ=              8.7421
 Hexadecapole moment (field-independent basis, Debye-Ang**3):
 XXXX=          -2558.3690 YYYY=          -1082.8057 ZZZZ=           -180.5613 XXXY=             27.5586
 XXXZ=            -32.6320 YYYX=             32.4672 YYYZ=             -8.7760 ZZZX=            -34.7990
 ZZZY=             -5.1360 XXYY=           -598.8032 XXZZ=           -410.8905 YYZZ=           -199.6857
 XXYZ=            -19.6312 YYXZ=            -10.8853 ZZXY=             -0.6958
 N-N= 1.244656413894D+03 E-N=-5.633776490611D+03  KE= 1.323564024515D+03
 Calling FoFJK, ICntrl=      2127 FMM=F ISym2X=0 I1Cent= 0 IOpClX= 0 NMat=1 NMatS=1 NMatT=0.
 ***** Axes restored to original set *****
 -------------------------------------------------------------------
 Center     Atomic                   Forces (Hartrees/Bohr)
 Number     Number              X              Y              Z
 -------------------------------------------------------------------
      1        6           0.002948406    0.003084297   -0.001502733
      2        6          -0.006082708    0.000300592    0.004714187
      3        9           0.004542202   -0.000309272   -0.002027648
      4        6          -0.003946727    0.000665490   -0.003373151
      5        9           0.002306476   -0.000491933    0.000977229
      6        6          -0.000419625    0.000383759   -0.003720077
      7        6           0.004321049   -0.000844915   -0.001648980
      8        9          -0.001280725    0.000256669    0.000310279
      9        6          -0.000518662   -0.001138754    0.001211157
     10        9           0.000447237    0.001307413   -0.000070034
     11       16          -0.020858169   -0.028030807    0.016328847
     12        8           0.011074173    0.004102678   -0.006810252
     13        8           0.000340812    0.012600643   -0.006022730
     14        7           0.009640548    0.012603786   -0.004292976
     15        1          -0.000001125   -0.003244833    0.002878696
     16        9           0.000057945   -0.000093192    0.001331028
     17        1          -0.002571108   -0.001151622    0.001717158
 -------------------------------------------------------------------
 Cartesian Forces:  Max     0.028030807 RMS     0.006790553

 GradGradGradGradGradGradGradGradGradGradGradGradGradGradGradGradGradGrad
 Berny optimization.
 FormGI is forming the generalized inverse of G from B-inverse, IUseBI=4.
 Internal  Forces:  Max     0.012328868 RMS     0.002909677
 Search for a local minimum.
 Step number   1 out of a maximum of   90
 All quantities printed in internal units (Hartrees-Bohrs-Radians)
 Mixed Optimization -- RFO/linear search
 Second derivative matrix not updated -- first step.
 ITU=  0
     Eigenvalues ---    0.00455   0.01472   0.02168   0.02186   0.02208
     Eigenvalues ---    0.02240   0.02247   0.02255   0.02264   0.02275
     Eigenvalues ---    0.02293   0.04283   0.09710   0.10587   0.13968
     Eigenvalues ---    0.16000   0.16000   0.19640   0.24998   0.24999
     Eigenvalues ---    0.24999   0.25000   0.25000   0.25000   0.25000
     Eigenvalues ---    0.25000   0.25000   0.25000   0.26626   0.43284
     Eigenvalues ---    0.43592   0.44010   0.44090   0.45153   0.46955
     Eigenvalues ---    0.47289   0.47802   0.48410   0.58541   0.59405
     Eigenvalues ---    0.59584   0.59919   0.60602   0.93268   0.94489
 RFO step:  Lambda=-2.84555006D-03 EMin= 4.54671555D-03
 Linear search not attempted -- first point.
 Iteration  1 RMS(Cart)=  0.05341547 RMS(Int)=  0.00129770
 Iteration  2 RMS(Cart)=  0.00169452 RMS(Int)=  0.00016114
 Iteration  3 RMS(Cart)=  0.00000178 RMS(Int)=  0.00016114
 Iteration  4 RMS(Cart)=  0.00000000 RMS(Int)=  0.00016114
 Variable       Old X    -DE/DX   Delta X   Delta X   Delta X     New X
                                 (Linear)    (Quad)   (Total)
    R1        2.63189   0.00179   0.00000   0.00379   0.00379   2.63568
    R2        2.63455   0.00154   0.00000   0.00322   0.00323   2.63779
    R3        3.38945   0.00410   0.00000   0.01525   0.01525   3.40470
    R4        2.51005  -0.00498   0.00000  -0.00827  -0.00827   2.50177
    R5        2.62469   0.00358   0.00000   0.00754   0.00753   2.63222
    R6        2.51414  -0.00251   0.00000  -0.00421  -0.00421   2.50993
    R7        2.61807   0.00197   0.00000   0.00414   0.00413   2.62219
    R8        2.62383   0.00233   0.00000   0.00488   0.00487   2.62870
    R9        2.50467  -0.00133   0.00000  -0.00218  -0.00218   2.50249
   R10        2.51271  -0.00130   0.00000  -0.00217  -0.00217   2.51054
   R11        2.61158   0.00259   0.00000   0.00522   0.00524   2.61681
   R12        2.52114   0.00011   0.00000   0.00019   0.00019   2.52133
   R13        2.74630  -0.01146   0.00000  -0.01209  -0.01209   2.73422
   R14        2.75162  -0.01233   0.00000  -0.01318  -0.01318   2.73844
   R15        3.08798   0.01014   0.00000   0.02231   0.02231   3.11029
   R16        1.93142  -0.00359   0.00000  -0.00811  -0.00811   1.92331
   R17        1.93047  -0.00270   0.00000  -0.00609  -0.00609   1.92438
    A1        2.06160  -0.00031   0.00000  -0.00143  -0.00143   2.06018
    A2        2.16338  -0.00057   0.00000  -0.00224  -0.00229   2.16109
    A3        2.05814   0.00088   0.00000   0.00351   0.00346   2.06160
    A4        2.13679   0.00009   0.00000   0.00030   0.00029   2.13709
    A5        2.10445  -0.00002   0.00000   0.00001   0.00001   2.10446
    A6        2.04193  -0.00007   0.00000  -0.00035  -0.00036   2.04158
    A7        2.09289   0.00059   0.00000   0.00222   0.00222   2.09512
    A8        2.09816   0.00000   0.00000   0.00026   0.00025   2.09841
    A9        2.09213  -0.00060   0.00000  -0.00248  -0.00248   2.08966
   A10        2.09553  -0.00008   0.00000  -0.00014  -0.00014   2.09538
   A11        2.09468   0.00023   0.00000   0.00081   0.00081   2.09549
   A12        2.09297  -0.00015   0.00000  -0.00067  -0.00068   2.09229
   A13        2.09725  -0.00021   0.00000  -0.00081  -0.00083   2.09642
   A14        2.08028  -0.00036   0.00000  -0.00148  -0.00146   2.07882
   A15        2.10566   0.00057   0.00000   0.00229   0.00227   2.10793
   A16        2.12635   0.00077   0.00000   0.00277   0.00273   2.12908
   A17        2.09165  -0.00004   0.00000  -0.00012  -0.00023   2.09141
   A18        2.06514  -0.00074   0.00000  -0.00288  -0.00300   2.06214
   A19        1.87484  -0.00073   0.00000  -0.00786  -0.00835   1.86649
   A20        1.85839  -0.00079   0.00000  -0.00851  -0.00905   1.84934
   A21        1.87957  -0.00537   0.00000  -0.03921  -0.03982   1.83974
   A22        2.10146   0.00623   0.00000   0.06018   0.06025   2.16170
   A23        1.87225  -0.00014   0.00000  -0.00651  -0.00702   1.86523
   A24        1.86786  -0.00050   0.00000  -0.00866  -0.00920   1.85865
   A25        1.97571   0.00119   0.00000   0.01503   0.01479   1.99050
   A26        1.98069  -0.00068   0.00000   0.00350   0.00325   1.98394
   A27        1.95933   0.00106   0.00000   0.01845   0.01808   1.97741
    D1        3.13522   0.00010   0.00000   0.00236   0.00237   3.13759
    D2       -0.00074   0.00027   0.00000   0.00886   0.00886   0.00813
    D3        0.00565   0.00037   0.00000   0.01807   0.01804   0.02369
    D4       -3.13031   0.00053   0.00000   0.02457   0.02453  -3.10578
    D5        0.00304  -0.00018   0.00000  -0.00532  -0.00532  -0.00228
    D6        3.13401  -0.00082   0.00000  -0.03110  -0.03111   3.10290
    D7        3.13335  -0.00044   0.00000  -0.02010  -0.02012   3.11323
    D8       -0.01887  -0.00108   0.00000  -0.04588  -0.04591  -0.06478
    D9       -0.10944  -0.00399   0.00000  -0.11434  -0.11416  -0.22360
   D10        2.16364   0.00270   0.00000  -0.05080  -0.05100   2.11264
   D11       -2.12109  -0.00079   0.00000  -0.08334  -0.08334  -2.20442
   D12        3.04415  -0.00371   0.00000  -0.09864  -0.09845   2.94571
   D13       -0.96596   0.00298   0.00000  -0.03509  -0.03529  -1.00124
   D14        1.03251  -0.00051   0.00000  -0.06764  -0.06763   0.96488
   D15        3.14055  -0.00013   0.00000  -0.00462  -0.00463   3.13593
   D16       -0.00096  -0.00016   0.00000  -0.00552  -0.00553  -0.00649
   D17        0.00429   0.00003   0.00000   0.00153   0.00152   0.00581
   D18       -3.13721  -0.00000   0.00000   0.00063   0.00062  -3.13660
   D19        0.00043  -0.00005   0.00000  -0.00165  -0.00165  -0.00122
   D20       -3.14081   0.00011   0.00000   0.00412   0.00411  -3.13669
   D21       -3.14108  -0.00008   0.00000  -0.00254  -0.00255   3.13956
   D22        0.00087   0.00008   0.00000   0.00322   0.00321   0.00409
   D23       -3.13966   0.00030   0.00000   0.01134   0.01133  -3.12833
   D24        0.00180   0.00014   0.00000   0.00516   0.00516   0.00696
   D25        0.00157   0.00014   0.00000   0.00559   0.00558   0.00715
   D26       -3.14015  -0.00002   0.00000  -0.00059  -0.00059  -3.14074
   D27       -0.00359  -0.00002   0.00000  -0.00164  -0.00164  -0.00523
   D28       -3.13472   0.00061   0.00000   0.02374   0.02372  -3.11100
   D29        3.13787  -0.00018   0.00000  -0.00785  -0.00785   3.13002
   D30        0.00675   0.00045   0.00000   0.01753   0.01751   0.02426
   D31        1.09949   0.00123   0.00000   0.02980   0.02986   1.12936
   D32       -1.16011  -0.00074   0.00000  -0.01340  -0.01350  -1.17361
   D33       -0.91387   0.00481   0.00000   0.06160   0.06152  -0.85235
   D34        3.10972   0.00283   0.00000   0.01840   0.01815   3.12787
   D35        3.09165  -0.00250   0.00000  -0.00300  -0.00272   3.08893
   D36        0.83205  -0.00447   0.00000  -0.04619  -0.04609   0.78596
         Item               Value     Threshold  Converged?
 Maximum Force            0.012329     0.000450     NO 
 RMS     Force            0.002910     0.000300     NO 
 Maximum Displacement     0.192247     0.001800     NO 
 RMS     Displacement     0.053749     0.001200     NO 
 Predicted change in Energy=-1.496699D-03
 GradGradGradGradGradGradGradGradGradGradGradGradGradGradGradGradGradGrad

                          Input orientation:                          
 ---------------------------------------------------------------------
 Center     Atomic      Atomic             Coordinates (Angstroms)
 Number     Number       Type             X           Y           Z
 ---------------------------------------------------------------------
      1          6           0       -1.540531    0.685438   -0.776296
      2          6           0       -2.672254    0.905155   -1.561302
      3          9           0       -3.884391    1.024184   -1.042440
      4          6           0       -2.566704    0.994756   -2.947316
      5          9           0       -3.652322    1.197773   -3.685105
      6          6           0       -1.329088    0.873576   -3.563002
      7          6           0       -0.187325    0.663273   -2.796733
      8          9           0        1.000157    0.562144   -3.383778
      9          6           0       -0.307628    0.569335   -1.420413
     10          9           0        0.803833    0.403150   -0.701239
     11         16           0       -1.583124    0.502005    1.015527
     12          8           0       -2.895951    0.925966    1.451668
     13          8           0       -1.022152   -0.804415    1.295760
     14          7           0       -0.508074    1.605989    1.593851
     15          1           0       -0.768612    2.572997    1.412532
     16          9           0       -1.231807    0.964848   -4.880529
     17          1           0        0.459806    1.398102    1.355094
 ---------------------------------------------------------------------
                    Distance matrix (angstroms):
                    1          2          3          4          5
     1  C    0.000000
     2  C    1.394743   0.000000
     3  F    2.383120   1.323881   0.000000
     4  C    2.421164   1.392912   2.316401   0.000000
     5  F    3.630884   2.357265   2.658508   1.328200   0.000000
     6  C    2.801042   2.410788   3.592421   1.387606   2.348922
     7  C    2.431835   2.785618   4.108053   2.407073   3.616781
     8  F    3.642699   4.114083   5.436374   3.619414   4.705358
     9  C    1.395857   2.392506   3.625326   2.759682   4.087878
    10  F    2.362490   3.615922   4.741471   4.093333   5.421457
    11  S    1.801691   2.826443   3.131091   4.112706   5.182819
    12  O    2.618939   3.021335   2.684630   4.411824   5.199271
    13  O    2.604188   3.715948   4.123514   4.860695   5.977924
    14  N    2.744263   3.889709   4.322968   5.023322   6.157947
    15  H    2.991606   3.905028   4.258379   4.973153   6.016056
    16  F    4.125301   3.618801   4.665903   2.349502   2.709647
    17  H    3.008664   4.307919   4.975945   5.275716   6.507944
                    6          7          8          9         10
     6  C    0.000000
     7  C    1.391049   0.000000
     8  F    2.356797   1.328519   0.000000
     9  C    2.393038   1.384758   2.359058   0.000000
    10  F    3.600047   2.332627   2.694408   1.334231   0.000000
    11  S    4.600601   4.062953   5.102043   2.750496   2.941874
    12  O    5.254020   5.045253   6.220415   3.882712   4.312394
    13  O    5.149508   4.427137   5.277811   3.126552   2.963181
    14  N    5.272915   4.502091   5.304825   3.193841   2.904369
    15  H    5.287543   4.658632   5.493329   3.500392   3.413041
    16  F    1.324263   2.350340   2.717370   3.603186   4.682499
    17  H    5.259557   4.265726   4.842284   2.996539   2.310150
                   11         12         13         14         15
    11  S    0.000000
    12  O    1.446885   0.000000
    13  O    1.449122   2.555317   0.000000
    14  N    1.645896   2.486887   2.482576   0.000000
    15  H    2.260542   2.690690   3.388927   1.017772   0.000000
    16  F    5.924620   6.547336   6.428126   6.546179   6.511783
    17  H    2.256515   3.390183   2.655334   1.018338   1.700790
                   16         17
    16  F    0.000000
    17  H    6.475513   0.000000
 Stoichiometry    C6H2F5NO2S
 Framework group  C1[X(C6H2F5NO2S)]
 Deg. of freedom    45
 Full point group                 C1      NOp   1
 Largest Abelian subgroup         C1      NOp   1
 Largest concise Abelian subgroup C1      NOp   1
                         Standard orientation:                         
 ---------------------------------------------------------------------
 Center     Atomic      Atomic             Coordinates (Angstroms)
 Number     Number       Type             X           Y           Z
 ---------------------------------------------------------------------
      1          6           0       -0.451361    0.102796   -0.035706
      2          6           0        0.343173    1.248735   -0.006610
      3          9           0       -0.170042    2.469092   -0.008022
      4          6           0        1.732292    1.147548    0.011055
      5          9           0        2.478777    2.245923    0.032216
      6          6           0        2.342074   -0.098888    0.007623
      7          6           0        1.566837   -1.253721   -0.012039
      8          9           0        2.149146   -2.447763   -0.000110
      9          6           0        0.187097   -1.138488   -0.036423
     10          9           0       -0.538506   -2.258027   -0.019024
     11         16           0       -2.251121    0.132075   -0.113811
     12          8           0       -2.663393    1.489794    0.169218
     13          8           0       -2.609285   -0.585415   -1.320824
     14          7           0       -2.758780   -0.794202    1.148435
     15          1           0       -2.519400   -0.416465    2.062695
     16          9           0        3.662918   -0.191287    0.030075
     17          1           0       -2.531085   -1.781711    1.048471
 ---------------------------------------------------------------------
 Rotational constants (GHZ):           0.8443756           0.4368422           0.3062523
 Basis read from rwf:  (6D, 7F)
 There are   293 symmetry adapted cartesian basis functions of A   symmetry.
 There are   293 symmetry adapted basis functions of A   symmetry.
   293 basis functions,   512 primitive gaussians,   293 cartesian basis functions
    61 alpha electrons       61 beta electrons
       nuclear repulsion energy      1244.6996204473 Hartrees.
 NAtoms=   17 NActive=   17 NUniq=   17 SFac= 1.00D+00 NAtFMM=   60 NAOKFM=F Big=F
 Integral buffers will be    131072 words long.
 Raffenetti 2 integral format.
 Two-electron integral symmetry is turned on.
 One-electron integrals computed using PRISM.
 NBasis=   293 RedAO= T EigKep=  1.52D-06  NBF=   293
 NBsUse=   293 1.00D-06 EigRej= -1.00D+00 NBFU=   293
 Initial guess from the checkpoint file:  "/jobfs/40765789.gadi-pbs/Gau-3910319.chk"
 B after Tr=    -0.000000   -0.000000   -0.000000
         Rot=    0.999974   -0.007075   -0.000212    0.001174 Ang=  -0.82 deg.
 ExpMin= 4.05D-02 ExpMax= 2.19D+04 ExpMxC= 3.30D+03 IAcc=3 IRadAn=         5 AccDes= 0.00D+00
 Harris functional with IExCor= 1009 and IRadAn=       5 diagonalized for initial guess.
 HarFok:  IExCor= 1009 AccDes= 0.00D+00 IRadAn=         5 IDoV= 1 UseB2=F ITyADJ=14
 ICtDFT=  3500011 ScaDFX=  1.000000  1.000000  1.000000  1.000000
 FoFCou: FMM=F IPFlag=           0 FMFlag=      100000 FMFlg1=           0
         NFxFlg=           0 DoJE=T BraDBF=F KetDBF=T FulRan=T
         wScrn=  0.000000 ICntrl=       500 IOpCl=  0 I1Cent=   200000004 NGrid=           0
         NMat0=    1 NMatS0=      1 NMatT0=    0 NMatD0=    1 NMtDS0=    0 NMtDT0=    0
 Petite list used in FoFCou.
 Requested convergence on RMS density matrix=1.00D-08 within 128 cycles.
 Requested convergence on MAX density matrix=1.00D-06.
 Requested convergence on             energy=1.00D-06.
 No special actions if energy rises.
 SCF Done:  E(RM062X) =  -1331.97744707     A.U. after   13 cycles
            NFock= 13  Conv=0.63D-08     -V/T= 2.0064
 Calling FoFJK, ICntrl=      2127 FMM=F ISym2X=0 I1Cent= 0 IOpClX= 0 NMat=1 NMatS=1 NMatT=0.
 ***** Axes restored to original set *****
 -------------------------------------------------------------------
 Center     Atomic                   Forces (Hartrees/Bohr)
 Number     Number              X              Y              Z
 -------------------------------------------------------------------
      1        6           0.000556611    0.000834714   -0.002690914
      2        6          -0.000077819   -0.001198333    0.000403442
      3        9           0.000602530   -0.000294403    0.000196902
      4        6          -0.000080437    0.000292199   -0.000587889
      5        9           0.000351683   -0.000079971    0.000227713
      6        6          -0.000355485    0.000006130    0.000048616
      7        6           0.000668273   -0.000296094    0.000227890
      8        9          -0.000304223    0.000099473    0.000146919
      9        6          -0.002404881    0.001259389   -0.000852941
     10        9           0.001486890   -0.001355008   -0.000159278
     11       16          -0.003333952   -0.003410716    0.002597054
     12        8           0.004581629   -0.001749420   -0.001295080
     13        8          -0.002765796    0.004388809   -0.000525556
     14        7           0.003446802    0.003162691   -0.000069930
     15        1          -0.001031012   -0.001082973    0.001253860
     16        9           0.000000336   -0.000032648    0.000126752
     17        1          -0.001341150   -0.000543839    0.000952440
 -------------------------------------------------------------------
 Cartesian Forces:  Max     0.004581629 RMS     0.001627536

 GradGradGradGradGradGradGradGradGradGradGradGradGradGradGradGradGradGrad
 Berny optimization.
 Using GEDIIS/GDIIS optimizer.
 FormGI is forming the generalized inverse of G from B-inverse, IUseBI=4.
 Internal  Forces:  Max     0.005129607 RMS     0.001200086
 Search for a local minimum.
 Step number   2 out of a maximum of   90
 All quantities printed in internal units (Hartrees-Bohrs-Radians)
 Mixed Optimization -- RFO/linear search
 Update second derivatives using D2CorX and points    1    2
 DE= -1.41D-03 DEPred=-1.50D-03 R= 9.42D-01
 TightC=F SS=  1.41D+00  RLast= 2.42D-01 DXNew= 5.0454D-01 7.2653D-01
 Trust test= 9.42D-01 RLast= 2.42D-01 DXMaxT set to 5.05D-01
 ITU=  1  0
 Use linear search instead of GDIIS.
     Eigenvalues ---    0.00493   0.01445   0.02154   0.02208   0.02212
     Eigenvalues ---    0.02247   0.02253   0.02264   0.02274   0.02290
     Eigenvalues ---    0.02388   0.03858   0.10282   0.11882   0.13391
     Eigenvalues ---    0.15964   0.16105   0.19178   0.24658   0.24988
     Eigenvalues ---    0.24995   0.24998   0.24999   0.24999   0.25000
     Eigenvalues ---    0.25000   0.25000   0.26102   0.26927   0.42352
     Eigenvalues ---    0.43305   0.43616   0.44059   0.44425   0.46935
     Eigenvalues ---    0.47455   0.47783   0.48563   0.58555   0.59293
     Eigenvalues ---    0.59552   0.59786   0.60591   0.87311   0.93971
 RFO step:  Lambda=-4.69480471D-04 EMin= 4.92629669D-03
 Quartic linear search produced a step of -0.02586.
 Iteration  1 RMS(Cart)=  0.02440869 RMS(Int)=  0.00022221
 Iteration  2 RMS(Cart)=  0.00030128 RMS(Int)=  0.00005331
 Iteration  3 RMS(Cart)=  0.00000006 RMS(Int)=  0.00005331
 Variable       Old X    -DE/DX   Delta X   Delta X   Delta X     New X
                                 (Linear)    (Quad)   (Total)
    R1        2.63568  -0.00077  -0.00010  -0.00084  -0.00094   2.63475
    R2        2.63779  -0.00006  -0.00008   0.00052   0.00046   2.63824
    R3        3.40470   0.00283  -0.00039   0.01335   0.01296   3.41766
    R4        2.50177  -0.00050   0.00021  -0.00245  -0.00223   2.49954
    R5        2.63222   0.00011  -0.00019   0.00171   0.00150   2.63373
    R6        2.50993  -0.00043   0.00011  -0.00153  -0.00142   2.50851
    R7        2.62219  -0.00051  -0.00011  -0.00021  -0.00033   2.62186
    R8        2.62870  -0.00003  -0.00013   0.00089   0.00076   2.62946
    R9        2.50249  -0.00013   0.00006  -0.00064  -0.00058   2.50191
   R10        2.51054  -0.00034   0.00006  -0.00099  -0.00094   2.50960
   R11        2.61681  -0.00027  -0.00014   0.00049   0.00036   2.61718
   R12        2.52133   0.00132  -0.00000   0.00224   0.00223   2.52356
   R13        2.73422  -0.00506   0.00031  -0.00760  -0.00729   2.72692
   R14        2.73844  -0.00513   0.00034  -0.00796  -0.00762   2.73082
   R15        3.11029   0.00248  -0.00058   0.00976   0.00919   3.11948
   R16        1.92331  -0.00099   0.00021  -0.00379  -0.00358   1.91973
   R17        1.92438  -0.00139   0.00016  -0.00427  -0.00411   1.92027
    A1        2.06018  -0.00041   0.00004  -0.00208  -0.00215   2.05803
    A2        2.16109  -0.00225   0.00006  -0.00943  -0.00951   2.15158
    A3        2.06160   0.00265  -0.00009   0.01079   0.01054   2.07214
    A4        2.13709  -0.00082  -0.00001  -0.00313  -0.00314   2.13395
    A5        2.10446   0.00052  -0.00000   0.00207   0.00207   2.10653
    A6        2.04158   0.00030   0.00001   0.00108   0.00109   2.04266
    A7        2.09512   0.00012  -0.00006   0.00087   0.00082   2.09594
    A8        2.09841  -0.00020  -0.00001  -0.00071  -0.00074   2.09767
    A9        2.08966   0.00009   0.00006  -0.00016  -0.00009   2.08957
   A10        2.09538  -0.00012   0.00000  -0.00046  -0.00048   2.09490
   A11        2.09549   0.00008  -0.00002   0.00047   0.00044   2.09593
   A12        2.09229   0.00004   0.00002   0.00004   0.00005   2.09235
   A13        2.09642  -0.00005   0.00002  -0.00036  -0.00035   2.09607
   A14        2.07882   0.00008   0.00004   0.00003   0.00008   2.07890
   A15        2.10793  -0.00003  -0.00006   0.00035   0.00028   2.10821
   A16        2.12908   0.00013  -0.00007   0.00129   0.00119   2.13027
   A17        2.09141   0.00114   0.00001   0.00462   0.00454   2.09596
   A18        2.06214  -0.00126   0.00008  -0.00525  -0.00526   2.05688
   A19        1.86649  -0.00069   0.00022  -0.00433  -0.00409   1.86240
   A20        1.84934  -0.00059   0.00023  -0.00216  -0.00193   1.84741
   A21        1.83974   0.00385   0.00103   0.01031   0.01136   1.85110
   A22        2.16170  -0.00027  -0.00156   0.00442   0.00285   2.16455
   A23        1.86523  -0.00117   0.00018  -0.00632  -0.00611   1.85912
   A24        1.85865  -0.00025   0.00024  -0.00013   0.00011   1.85877
   A25        1.99050  -0.00048  -0.00038   0.00428   0.00379   1.99429
   A26        1.98394  -0.00004  -0.00008   0.00469   0.00451   1.98845
   A27        1.97741   0.00103  -0.00047   0.01619   0.01558   1.99298
    D1        3.13759  -0.00032  -0.00006  -0.01736  -0.01736   3.12023
    D2        0.00813  -0.00040  -0.00023  -0.01982  -0.02002  -0.01189
    D3        0.02369   0.00008  -0.00047   0.01384   0.01325   0.03694
    D4       -3.10578  -0.00000  -0.00063   0.01138   0.01059  -3.09518
    D5       -0.00228   0.00029   0.00014   0.01561   0.01574   0.01346
    D6        3.10290   0.00092   0.00080   0.03713   0.03803   3.14093
    D7        3.11323  -0.00016   0.00052  -0.01410  -0.01375   3.09948
    D8       -0.06478   0.00047   0.00119   0.00743   0.00853  -0.05624
    D9       -0.22360   0.00032   0.00295  -0.01488  -0.01195  -0.23555
   D10        2.11264  -0.00091   0.00132  -0.01384  -0.01253   2.10011
   D11       -2.20442   0.00020   0.00215  -0.01052  -0.00837  -2.21279
   D12        2.94571   0.00077   0.00255   0.01653   0.01908   2.96479
   D13       -1.00124  -0.00046   0.00091   0.01757   0.01850  -0.98274
   D14        0.96488   0.00064   0.00175   0.02090   0.02266   0.98754
   D15        3.13593   0.00011   0.00012   0.00513   0.00525   3.14117
   D16       -0.00649   0.00022   0.00014   0.01063   0.01075   0.00426
   D17        0.00581   0.00004  -0.00004   0.00282   0.00276   0.00857
   D18       -3.13660   0.00015  -0.00002   0.00833   0.00826  -3.12834
   D19       -0.00122   0.00007   0.00004   0.00354   0.00359   0.00237
   D20       -3.13669  -0.00012  -0.00011  -0.00458  -0.00467  -3.14136
   D21        3.13956   0.00019   0.00007   0.00903   0.00908  -3.13455
   D22        0.00409  -0.00000  -0.00008   0.00091   0.00082   0.00490
   D23       -3.12833  -0.00027  -0.00029  -0.01047  -0.01076  -3.13909
   D24        0.00696  -0.00018  -0.00013  -0.00786  -0.00796  -0.00100
   D25        0.00715  -0.00008  -0.00014  -0.00236  -0.00251   0.00464
   D26       -3.14074   0.00001   0.00002   0.00025   0.00028  -3.14046
   D27       -0.00523  -0.00000   0.00004  -0.00190  -0.00190  -0.00713
   D28       -3.11100  -0.00067  -0.00061  -0.02327  -0.02390  -3.13489
   D29        3.13002   0.00008   0.00020   0.00073   0.00091   3.13094
   D30        0.02426  -0.00058  -0.00045  -0.02065  -0.02109   0.00317
   D31        1.12936   0.00054  -0.00077   0.02405   0.02330   1.15265
   D32       -1.17361  -0.00048   0.00035  -0.00877  -0.00846  -1.18207
   D33       -0.85235   0.00008  -0.00159   0.02703   0.02549  -0.82686
   D34        3.12787  -0.00093  -0.00047  -0.00578  -0.00627   3.12160
   D35        3.08893   0.00143   0.00007   0.02602   0.02612   3.11505
   D36        0.78596   0.00041   0.00119  -0.00680  -0.00564   0.78032
         Item               Value     Threshold  Converged?
 Maximum Force            0.005130     0.000450     NO 
 RMS     Force            0.001200     0.000300     NO 
 Maximum Displacement     0.114814     0.001800     NO 
 RMS     Displacement     0.024319     0.001200     NO 
 Predicted change in Energy=-2.382366D-04
 GradGradGradGradGradGradGradGradGradGradGradGradGradGradGradGradGradGrad

                          Input orientation:                          
 ---------------------------------------------------------------------
 Center     Atomic      Atomic             Coordinates (Angstroms)
 Number     Number       Type             X           Y           Z
 ---------------------------------------------------------------------
      1          6           0       -1.527417    0.702007   -0.783250
      2          6           0       -2.663691    0.908677   -1.564337
      3          9           0       -3.871968    1.019543   -1.037736
      4          6           0       -2.566894    0.996275   -2.951917
      5          9           0       -3.656669    1.192766   -3.683970
      6          6           0       -1.333052    0.873081   -3.574347
      7          6           0       -0.187770    0.658603   -2.813777
      8          9           0        0.994307    0.543330   -3.407958
      9          6           0       -0.300213    0.572229   -1.436103
     10          9           0        0.815937    0.373832   -0.730292
     11         16           0       -1.580596    0.508063    1.014083
     12          8           0       -2.895158    0.926110    1.437745
     13          8           0       -1.019601   -0.795395    1.287148
     14          7           0       -0.517165    1.613365    1.624346
     15          1           0       -0.787933    2.580772    1.473290
     16          9           0       -1.243333    0.956881   -4.892598
     17          1           0        0.455049    1.414137    1.405953
 ---------------------------------------------------------------------
                    Distance matrix (angstroms):
                    1          2          3          4          5
     1  C    0.000000
     2  C    1.394248   0.000000
     3  F    2.379603   1.322699   0.000000
     4  C    2.422854   1.393708   2.316861   0.000000
     5  F    3.631629   2.357871   2.660622   1.327448   0.000000
     6  C    2.803082   2.410810   3.591926   1.387430   2.348065
     7  C    2.433018   2.784568   4.105838   2.406935   3.616050
     8  F    3.643263   4.112587   5.433725   3.618741   4.704203
     9  C    1.396098   2.390746   3.621632   2.759592   4.087023
    10  F    2.366815   3.617942   4.742143   4.094704   5.422091
    11  S    1.808549   2.825214   3.118006   4.115859   5.181756
    12  O    2.617967   3.011042   2.662873   4.402477   5.184878
    13  O    2.605117   3.706461   4.103058   4.855292   5.968159
    14  N    2.765448   3.907922   4.323657   5.052165   6.181554
    15  H    3.027964   3.942276   4.272466   5.025712   6.062469
    16  F    4.127034   3.618987   4.666220   2.349385   2.709356
    17  H    3.038077   4.336433   4.985017   5.319566   6.546949
                    6          7          8          9         10
     6  C    0.000000
     7  C    1.391452   0.000000
     8  F    2.356486   1.328024   0.000000
     9  C    2.393607   1.384950   2.358989   0.000000
    10  F    3.599453   2.330115   2.688948   1.335412   0.000000
    11  S    4.609578   4.076167   5.117209   2.765305   2.967193
    12  O    5.250147   5.047468   6.225375   3.888183   4.333315
    13  O    5.149388   4.429857   5.281290   3.131135   2.967550
    14  N    5.314142   4.551594   5.362240   3.239967   2.976227
    15  H    5.356491   4.736440   5.581589   3.568849   3.506958
    16  F    1.323956   2.350464   2.717024   3.603441   4.680314
    17  H    5.319158   4.334763   4.921671   3.058842   2.403334
                   11         12         13         14         15
    11  S    0.000000
    12  O    1.443026   0.000000
    13  O    1.445089   2.550289   0.000000
    14  N    1.650757   2.482335   2.483600   0.000000
    15  H    2.266122   2.679471   3.389221   1.015878   0.000000
    16  F    5.933302   6.542378   6.427269   6.590058   6.585510
    17  H    2.262384   3.385715   2.659085   1.016163   1.706041
                   16         17
    16  F    0.000000
    17  H    6.539521   0.000000
 Stoichiometry    C6H2F5NO2S
 Framework group  C1[X(C6H2F5NO2S)]
 Deg. of freedom    45
 Full point group                 C1      NOp   1
 Largest Abelian subgroup         C1      NOp   1
 Largest concise Abelian subgroup C1      NOp   1
                         Standard orientation:                         
 ---------------------------------------------------------------------
 Center     Atomic      Atomic             Coordinates (Angstroms)
 Number     Number       Type             X           Y           Z
 ---------------------------------------------------------------------
      1          6           0       -0.449635    0.092434   -0.018080
      2          6           0        0.338080    1.242756   -0.004285
      3          9           0       -0.185466    2.457328   -0.020072
      4          6           0        1.728720    1.152548    0.015810
      5          9           0        2.467060    2.255643    0.028309
      6          6           0        2.347324   -0.089341    0.017221
      7          6           0        1.579678   -1.249683   -0.004313
      8          9           0        2.170353   -2.439108   -0.000116
      9          6           0        0.198944   -1.143841   -0.025777
     10          9           0       -0.513216   -2.273441   -0.038262
     11         16           0       -2.255275    0.127320   -0.114490
     12          8           0       -2.658893    1.486427    0.154293
     13          8           0       -2.600319   -0.595720   -1.317170
     14          7           0       -2.797866   -0.782548    1.151502
     15          1           0       -2.592805   -0.390096    2.065799
     16          9           0        3.668508   -0.172745    0.036597
     17          1           0       -2.587870   -1.773177    1.066981
 ---------------------------------------------------------------------
 Rotational constants (GHZ):           0.8448241           0.4350569           0.3054079
 Basis read from rwf:  (6D, 7F)
 There are   293 symmetry adapted cartesian basis functions of A   symmetry.
 There are   293 symmetry adapted basis functions of A   symmetry.
   293 basis functions,   512 primitive gaussians,   293 cartesian basis functions
    61 alpha electrons       61 beta electrons
       nuclear repulsion energy      1243.6680921023 Hartrees.
 NAtoms=   17 NActive=   17 NUniq=   17 SFac= 1.00D+00 NAtFMM=   60 NAOKFM=F Big=F
 Integral buffers will be    131072 words long.
 Raffenetti 2 integral format.
 Two-electron integral symmetry is turned on.
 One-electron integrals computed using PRISM.
 NBasis=   293 RedAO= T EigKep=  1.51D-06  NBF=   293
 NBsUse=   293 1.00D-06 EigRej= -1.00D+00 NBFU=   293
 Initial guess from the checkpoint file:  "/jobfs/40765789.gadi-pbs/Gau-3910319.chk"
 B after Tr=     0.000000    0.000000   -0.000000
         Rot=    0.999997    0.000984    0.001068   -0.001804 Ang=   0.27 deg.
 ExpMin= 4.05D-02 ExpMax= 2.19D+04 ExpMxC= 3.30D+03 IAcc=3 IRadAn=         5 AccDes= 0.00D+00
 Harris functional with IExCor= 1009 and IRadAn=       5 diagonalized for initial guess.
 HarFok:  IExCor= 1009 AccDes= 0.00D+00 IRadAn=         5 IDoV= 1 UseB2=F ITyADJ=14
 ICtDFT=  3500011 ScaDFX=  1.000000  1.000000  1.000000  1.000000
 FoFCou: FMM=F IPFlag=           0 FMFlag=      100000 FMFlg1=           0
         NFxFlg=           0 DoJE=T BraDBF=F KetDBF=T FulRan=T
         wScrn=  0.000000 ICntrl=       500 IOpCl=  0 I1Cent=   200000004 NGrid=           0
         NMat0=    1 NMatS0=      1 NMatT0=    0 NMatD0=    1 NMtDS0=    0 NMtDT0=    0
 Petite list used in FoFCou.
 Requested convergence on RMS density matrix=1.00D-08 within 128 cycles.
 Requested convergence on MAX density matrix=1.00D-06.
 Requested convergence on             energy=1.00D-06.
 No special actions if energy rises.
 SCF Done:  E(RM062X) =  -1331.97761725     A.U. after   12 cycles
            NFock= 12  Conv=0.86D-08     -V/T= 2.0064
 Calling FoFJK, ICntrl=      2127 FMM=F ISym2X=0 I1Cent= 0 IOpClX= 0 NMat=1 NMatS=1 NMatT=0.
 ***** Axes restored to original set *****
 -------------------------------------------------------------------
 Center     Atomic                   Forces (Hartrees/Bohr)
 Number     Number              X              Y              Z
 -------------------------------------------------------------------
      1        6           0.001249971   -0.000469776   -0.000786433
      2        6           0.000565078   -0.000099358   -0.000369188
      3        9          -0.000808307    0.000179430   -0.000031401
      4        6           0.000499302   -0.000109720    0.000357108
      5        9          -0.000356194    0.000108156   -0.000071287
      6        6          -0.000024760   -0.000329554    0.000604756
      7        6          -0.000464980    0.000382592    0.000264649
      8        9           0.000076888   -0.000039369    0.000030711
      9        6          -0.000764767   -0.000173514    0.000038620
     10        9          -0.000231668    0.000486942    0.000738349
     11       16           0.001197357    0.001900690   -0.000484613
     12        8           0.000069590   -0.000703438    0.000455212
     13        8          -0.000827600    0.000092989    0.000383207
     14        7           0.000124381   -0.001118958   -0.001190490
     15        1          -0.000731179    0.000106654    0.000347715
     16        9          -0.000000480    0.000091960   -0.000219826
     17        1           0.000427369   -0.000305723   -0.000067089
 -------------------------------------------------------------------
 Cartesian Forces:  Max     0.001900690 RMS     0.000576876

 GradGradGradGradGradGradGradGradGradGradGradGradGradGradGradGradGradGrad
 Berny optimization.
 Using GEDIIS/GDIIS optimizer.
 FormGI is forming the generalized inverse of G from B-inverse, IUseBI=4.
 Internal  Forces:  Max     0.001785050 RMS     0.000501501
 Search for a local minimum.
 Step number   3 out of a maximum of   90
 All quantities printed in internal units (Hartrees-Bohrs-Radians)
 Mixed Optimization -- En-DIIS/RFO-DIIS
 Update second derivatives using D2CorX and points    1    2    3
 DE= -1.70D-04 DEPred=-2.38D-04 R= 7.14D-01
 TightC=F SS=  1.41D+00  RLast= 9.62D-02 DXNew= 8.4853D-01 2.8855D-01
 Trust test= 7.14D-01 RLast= 9.62D-02 DXMaxT set to 5.05D-01
 ITU=  1  1  0
 Use linear search instead of GDIIS.
     Eigenvalues ---    0.00453   0.01498   0.02068   0.02208   0.02211
     Eigenvalues ---    0.02246   0.02253   0.02264   0.02275   0.02290
     Eigenvalues ---    0.02599   0.03490   0.10456   0.12398   0.13713
     Eigenvalues ---    0.15836   0.16099   0.19271   0.24875   0.24982
     Eigenvalues ---    0.24993   0.24999   0.24999   0.25000   0.25000
     Eigenvalues ---    0.25000   0.25139   0.25740   0.31983   0.42191
     Eigenvalues ---    0.43506   0.43999   0.44284   0.45097   0.47394
     Eigenvalues ---    0.47762   0.48313   0.48958   0.58452   0.59414
     Eigenvalues ---    0.59553   0.60095   0.60627   0.82969   0.93974
 RFO step:  Lambda=-1.22512290D-04 EMin= 4.53203862D-03
 Quartic linear search produced a step of -0.21240.
 Iteration  1 RMS(Cart)=  0.03307069 RMS(Int)=  0.00036712
 Iteration  2 RMS(Cart)=  0.00049492 RMS(Int)=  0.00001017
 Iteration  3 RMS(Cart)=  0.00000008 RMS(Int)=  0.00001017
 Variable       Old X    -DE/DX   Delta X   Delta X   Delta X     New X
                                 (Linear)    (Quad)   (Total)
    R1        2.63475   0.00012   0.00020  -0.00035  -0.00016   2.63459
    R2        2.63824  -0.00179  -0.00010  -0.00294  -0.00304   2.63520
    R3        3.41766  -0.00056  -0.00275   0.00452   0.00177   3.41943
    R4        2.49954   0.00074   0.00047  -0.00000   0.00047   2.50001
    R5        2.63373  -0.00047  -0.00032  -0.00011  -0.00043   2.63329
    R6        2.50851   0.00035   0.00030  -0.00018   0.00013   2.50864
    R7        2.62186  -0.00017   0.00007  -0.00042  -0.00035   2.62151
    R8        2.62946  -0.00019  -0.00016   0.00001  -0.00015   2.62931
    R9        2.50191   0.00022   0.00012   0.00004   0.00016   2.50208
   R10        2.50960   0.00006   0.00020  -0.00035  -0.00015   2.50945
   R11        2.61718  -0.00050  -0.00008  -0.00076  -0.00084   2.61633
   R12        2.52356   0.00013  -0.00047   0.00127   0.00080   2.52436
   R13        2.72692  -0.00013   0.00155  -0.00354  -0.00199   2.72493
   R14        2.73082  -0.00034   0.00162  -0.00386  -0.00224   2.72858
   R15        3.11948  -0.00134  -0.00195   0.00186  -0.00009   3.11939
   R16        1.91973   0.00025   0.00076  -0.00121  -0.00045   1.91929
   R17        1.92027   0.00048   0.00087  -0.00108  -0.00021   1.92007
    A1        2.05803   0.00054   0.00046   0.00053   0.00101   2.05904
    A2        2.15158   0.00116   0.00202  -0.00081   0.00124   2.15282
    A3        2.07214  -0.00169  -0.00224  -0.00003  -0.00224   2.06990
    A4        2.13395   0.00067   0.00067   0.00057   0.00123   2.13519
    A5        2.10653  -0.00043  -0.00044  -0.00032  -0.00076   2.10577
    A6        2.04266  -0.00024  -0.00023  -0.00023  -0.00047   2.04220
    A7        2.09594  -0.00013  -0.00017  -0.00015  -0.00033   2.09561
    A8        2.09767  -0.00008   0.00016  -0.00040  -0.00023   2.09744
    A9        2.08957   0.00021   0.00002   0.00055   0.00057   2.09014
   A10        2.09490   0.00004   0.00010   0.00007   0.00017   2.09508
   A11        2.09593  -0.00004  -0.00009  -0.00003  -0.00013   2.09581
   A12        2.09235   0.00001  -0.00001  -0.00003  -0.00005   2.09230
   A13        2.09607   0.00015   0.00007   0.00033   0.00041   2.09648
   A14        2.07890  -0.00012  -0.00002  -0.00037  -0.00039   2.07851
   A15        2.10821  -0.00003  -0.00006   0.00004  -0.00002   2.10820
   A16        2.13027   0.00007  -0.00025   0.00044   0.00019   2.13046
   A17        2.09596  -0.00099  -0.00096  -0.00085  -0.00180   2.09416
   A18        2.05688   0.00092   0.00112   0.00041   0.00154   2.05842
   A19        1.86240   0.00081   0.00087   0.00228   0.00314   1.86554
   A20        1.84741   0.00031   0.00041  -0.00043  -0.00001   1.84740
   A21        1.85110  -0.00113  -0.00241   0.00367   0.00125   1.85236
   A22        2.16455  -0.00091  -0.00061  -0.00436  -0.00496   2.15959
   A23        1.85912   0.00065   0.00130   0.00052   0.00181   1.86093
   A24        1.85877   0.00012  -0.00002  -0.00042  -0.00044   1.85832
   A25        1.99429  -0.00045  -0.00081   0.00023  -0.00056   1.99373
   A26        1.98845   0.00001  -0.00096   0.00308   0.00213   1.99058
   A27        1.99298   0.00048  -0.00331   0.01096   0.00766   2.00064
    D1        3.12023   0.00011   0.00369  -0.00264   0.00104   3.12127
    D2       -0.01189   0.00011   0.00425  -0.00404   0.00020  -0.01169
    D3        0.03694   0.00002  -0.00281   0.00353   0.00075   0.03768
    D4       -3.09518   0.00002  -0.00225   0.00212  -0.00009  -3.09528
    D5        0.01346  -0.00005  -0.00334   0.00431   0.00096   0.01443
    D6        3.14093  -0.00038  -0.00808   0.00416  -0.00393   3.13700
    D7        3.09948   0.00013   0.00292  -0.00160   0.00136   3.10084
    D8       -0.05624  -0.00020  -0.00181  -0.00174  -0.00353  -0.05978
    D9       -0.23555   0.00008   0.00254  -0.05045  -0.04790  -0.28345
   D10        2.10011  -0.00029   0.00266  -0.05462  -0.05196   2.04815
   D11       -2.21279  -0.00050   0.00178  -0.05370  -0.05192  -2.26472
   D12        2.96479  -0.00008  -0.00405  -0.04425  -0.04830   2.91648
   D13       -0.98274  -0.00045  -0.00393  -0.04842  -0.05236  -1.03510
   D14        0.98754  -0.00066  -0.00481  -0.04750  -0.05232   0.93522
   D15        3.14117   0.00001  -0.00111   0.00243   0.00132  -3.14070
   D16        0.00426  -0.00005  -0.00228   0.00261   0.00033   0.00459
   D17        0.00857   0.00001  -0.00059   0.00109   0.00051   0.00908
   D18       -3.12834  -0.00005  -0.00175   0.00126  -0.00048  -3.12882
   D19        0.00237  -0.00008  -0.00076  -0.00124  -0.00201   0.00036
   D20       -3.14136   0.00008   0.00099   0.00090   0.00189  -3.13947
   D21       -3.13455  -0.00014  -0.00193  -0.00107  -0.00299  -3.13754
   D22        0.00490   0.00003  -0.00017   0.00108   0.00091   0.00581
   D23       -3.13909   0.00014   0.00228   0.00007   0.00236  -3.13673
   D24       -0.00100   0.00014   0.00169   0.00142   0.00311   0.00211
   D25        0.00464  -0.00002   0.00053  -0.00207  -0.00153   0.00310
   D26       -3.14046  -0.00003  -0.00006  -0.00072  -0.00079  -3.14124
   D27       -0.00713  -0.00007   0.00040  -0.00303  -0.00262  -0.00974
   D28       -3.13489   0.00026   0.00508  -0.00288   0.00221  -3.13269
   D29        3.13094  -0.00007  -0.00019  -0.00167  -0.00186   3.12908
   D30        0.00317   0.00026   0.00448  -0.00152   0.00296   0.00613
   D31        1.15265   0.00055  -0.00495   0.02088   0.01593   1.16858
   D32       -1.18207   0.00028   0.00180   0.00079   0.00260  -1.17948
   D33       -0.82686  -0.00015  -0.00541   0.01642   0.01100  -0.81586
   D34        3.12160  -0.00041   0.00133  -0.00367  -0.00234   3.11926
   D35        3.11505   0.00045  -0.00555   0.02183   0.01628   3.13133
   D36        0.78032   0.00019   0.00120   0.00174   0.00294   0.78326
         Item               Value     Threshold  Converged?
 Maximum Force            0.001785     0.000450     NO 
 RMS     Force            0.000502     0.000300     NO 
 Maximum Displacement     0.108454     0.001800     NO 
 RMS     Displacement     0.033090     0.001200     NO 
 Predicted change in Energy=-7.524871D-05
 GradGradGradGradGradGradGradGradGradGradGradGradGradGradGradGradGradGrad

                          Input orientation:                          
 ---------------------------------------------------------------------
 Center     Atomic      Atomic             Coordinates (Angstroms)
 Number     Number       Type             X           Y           Z
 ---------------------------------------------------------------------
      1          6           0       -1.536796    0.709021   -0.785016
      2          6           0       -2.673196    0.894210   -1.571143
      3          9           0       -3.885780    0.989512   -1.050804
      4          6           0       -2.571582    0.976923   -2.958449
      5          9           0       -3.661140    1.154401   -3.695782
      6          6           0       -1.333252    0.869867   -3.574505
      7          6           0       -0.188035    0.678937   -2.807733
      8          9           0        0.998827    0.581778   -3.395400
      9          6           0       -0.306020    0.595893   -1.430768
     10          9           0        0.809366    0.422828   -0.716334
     11         16           0       -1.591393    0.522210    1.013972
     12          8           0       -2.888855    0.981829    1.443658
     13          8           0       -1.076992   -0.798617    1.289039
     14          7           0       -0.487754    1.589893    1.619668
     15          1           0       -0.731659    2.565844    1.479809
     16          9           0       -1.238545    0.951139   -4.892652
     17          1           0        0.476640    1.358607    1.398721
 ---------------------------------------------------------------------
                    Distance matrix (angstroms):
                    1          2          3          4          5
     1  C    0.000000
     2  C    1.394164   0.000000
     3  F    2.380555   1.322949   0.000000
     4  C    2.422058   1.393480   2.316546   0.000000
[...]
   zy         0.247505D+02      0.366764D+01      0.408080D+01
   zz         0.868871D+02      0.128753D+02      0.143258D+02

 ----------------------------------------------------------------------
 Unable to Open any file for archive entry.
 1\1\GINC-GADI-CPU-CLX-3019\Freq\RM062X\Gen\C6H2F5N1O2S1\YJ5695\20-May-
 2022\0\\#N Geom=AllCheck Guess=TCheck SCRF=Check GenChk RM062X/ChkBas 
 Freq\\HA.8.a3.freq\\0,1\C,-1.5327396004,0.711562787,-0.7859701581\C,-2
 .6706993894,0.891370744,-1.5708553281\F,-3.8829828807,0.9820363862,-1.
 0475301944\C,-2.5712048098,0.9731857846,-2.957847442\F,-3.6624385179,1
 .1461282963,-3.6941777078\C,-1.3331641573,0.8691211862,-3.5753256124\C
 ,-0.1867503196,0.6819577738,-2.8100358408\F,0.9997308451,0.5851487943,
 -3.398977193\C,-0.3030497298,0.5986140897,-1.4328350312\F,0.8135654581
 ,0.4227991606,-0.7198297938\S,-1.592528369,0.5267235429,1.0116572317\O
 ,-2.8864696728,1.0027008541,1.4388627525\O,-1.096719579,-0.8023627828,
 1.2868582037\N,-0.4837134585,1.5824468991,1.6164435888\H,-0.7378159898
 ,2.5604934714,1.5133344715\F,-1.2404241149,0.9491055791,-4.8939571403\
 H,0.4812372858,1.3632424337,1.3864651938\\Version=ES64L-G16RevC.01\Sta
 te=1-A\HF=-1331.977727\RMSD=5.537e-09\RMSF=6.525e-06\ZeroPoint=0.08850
 39\Thermal=0.1017559\ETot=-1331.8759712\HTot=-1331.875027\GTot=-1331.9
 292977\Dipole=1.0154457,1.1805375,-0.6600634\DipoleDeriv=-0.3385215,-0
 .0198688,0.019662,-0.01844,-0.272999,-0.033685,-0.0112352,-0.0022745,-
 0.7178899,1.0935347,-0.06718,-0.0158057,-0.0555448,0.1524775,-0.031047
 5,-0.5963538,0.0415124,0.3679923,-0.9741675,0.0642286,0.2386817,0.0625
 145,-0.0996326,-0.0127581,0.3256728,-0.0181705,-0.2712261,0.7855026,-0
 .1171483,0.6429871,-0.1247088,0.107445,-0.0918044,0.7544449,-0.1032541
 ,0.4027831,-0.836184,0.1164164,-0.5456656,0.1164974,-0.1067271,0.09421
 82,-0.4837908,0.081485,-0.5619233,0.2613365,-0.0134262,-0.072665,-0.01
 44147,0.1259117,-0.0831195,-0.0816901,-0.0740948,1.5023918,0.958556,-0
 .0710283,-0.5949297,-0.0582904,0.0874306,0.0634131,-0.639153,0.0707555
 ,0.2235555,-0.9583726,0.072635,0.5113151,0.0698572,-0.0924858,-0.03570
 96,0.4129492,-0.0288166,-0.4383215,0.8323901,-0.1048571,0.1051442,-0.1
 276951,0.1464186,-0.0282954,0.5936301,-0.0976646,0.4991387,-0.8221761,
 0.1087969,-0.3452701,0.1073625,-0.1166478,0.0409275,-0.3970983,0.05918
 09,-0.4504444,1.9816959,0.0725403,0.0650257,0.0869303,2.1536219,0.0846
 538,-0.0305425,-0.0009589,2.8452881,-0.9356439,0.0572876,0.3434274,0.1
 821726,-0.6027136,-0.1141133,0.1970268,-0.0318158,-0.8659313,-0.558195
 9,0.2013793,-0.1279875,0.076774,-1.0507986,0.3207854,-0.0292128,0.1247
 048,-0.884409,-0.7120838,-0.2675419,-0.3371963,-0.2776481,-0.7120552,-
 0.2959182,-0.1678174,-0.1459511,-1.0221378,0.1445104,-0.0384633,-0.041
 8253,0.0145289,0.2207482,0.076709,-0.0036068,0.0709313,0.3476081,-0.16
 33746,0.0035952,0.0814894,0.0046257,-0.0934032,0.0765554,0.0754452,0.0
 642199,-1.3309508,0.2411936,0.0026347,0.0736125,-0.0445213,0.1534094,-
 0.0308116,0.0813316,-0.0097888,0.3544764\Polar=105.8882786,-4.9243363,
 66.7903518,0.8305903,-2.131208,128.2334932\Quadrupole=-0.1574815,5.462
 5959,-5.3051144,3.3155326,5.4562025,6.3305056\PG=C01 [X(C6H2F5N1O2S1)]
 \NImag=0\\0.69143742,-0.07136192,0.13688547,0.01084016,-0.03595987,0.5
 5833728,-0.25458485,0.03231034,-0.12391925,0.74845711,0.02694190,-0.05
 365969,0.02407872,-0.06577077,0.13998178,-0.06382654,0.01733481,-0.206
 35298,-0.01923032,-0.03747803,0.69767686,-0.04343042,0.00375089,0.0091
 1627,-0.34318755,0.02371933,0.12529739,0.41527321,0.00619938,0.0034821
 6,-0.00227180,0.02399671,-0.03946131,-0.00724094,-0.03033430,0.0238505
 6,-0.01673027,0.00138578,0.02162352,0.11991166,-0.00683684,-0.12483755
 ,-0.15445195,0.00893529,0.14664123,0.04642405,-0.00390413,-0.01954818,
 -0.10525407,0.00854970,-0.04300046,-0.03477285,0.00067561,0.05793356,0
 .77023170,-0.00023193,-0.00245413,0.00385453,0.00170507,-0.05627454,0.
 02292487,0.00304168,0.00871962,-0.00365650,-0.07677769,0.12241419,-0.0
 8276566,0.01108223,-0.02389906,0.06492658,0.01148551,-0.32317692,0.017
 46858,0.00049184,-0.02670025,0.01423828,-0.04345484,0.73573742,-0.0014
 7045,0.00085289,0.00102333,-0.01728480,0.00289460,-0.00878773,0.012285
 35,-0.00186332,-0.00018065,-0.29647796,0.04020532,-0.15111198,0.349830
 65,0.00066900,0.00555253,0.00063058,0.00573843,0.00453716,0.00318873,-
 0.00187198,-0.00459716,-0.00070681,0.03972170,-0.03880279,0.02636846,-
 0.05002882,0.02934283,0.00523149,0.00018590,-0.00573357,-0.05030050,0.
 00801341,-0.03054565,0.00078045,-0.00080536,0.00540927,-0.15070568,0.0
 2618633,-0.17032990,0.19120254,-0.03288011,0.19154048,-0.08124406,0.01
 137258,-0.00271206,0.03696378,-0.01226799,0.10728310,0.00406497,0.0010
 6322,-0.01073336,-0.30220215,0.02719297,0.03607250,-0.05044913,0.00634
 830,0.00499742,0.73598062,0.01109334,0.00847910,0.00054048,-0.00767738
 ,-0.00849086,-0.01243367,0.00044986,0.00656725,0.00201574,0.02046732,-
 0.05008517,0.00324875,0.00883747,0.00380545,-0.00035193,-0.07164810,0.
 13105769,-0.00535901,0.00151339,0.00359180,0.03204056,-0.00330909,-0.0
 1410167,-0.00380533,0.00111336,-0.00406439,0.14762034,-0.00988250,-0.1
 5772161,-0.04000191,0.00480041,0.00207228,-0.01142755,-0.04402616,0.78
 438450,0.03265674,-0.00668493,0.02389095,-0.01675726,0.00533206,-0.032
 88438,0.00139215,-0.00052201,0.00101690,-0.05431306,0.00390850,0.02277
 521,0.00294172,0.00016232,0.00276935,-0.27051781,0.03653568,-0.1563634
 0,0.76880291,-0.00930340,0.00076875,-0.00230396,0.00540650,0.01135637,
 0.01032812,-0.00014518,-0.00265273,-0.00079546,0.00805929,-0.01054567,
 -0.00991370,0.00002286,0.00681251,0.00056453,0.02895851,-0.05284001,0.
 02757769,-0.07442214,0.12191569,0.09040823,-0.01074827,-0.01413088,-0.
 02961452,0.00950916,-0.07974929,-0.00404336,-0.00028667,0.00599000,-0.
 04306944,-0.00161637,0.09102546,0.00603183,-0.00000313,-0.00674244,-0.
 04493605,0.01456845,-0.17886775,-0.02990610,-0.04070023,0.74648641,-0.
 00163891,0.00086477,0.00001687,0.00346929,-0.00055268,0.00117806,-0.00
 590885,0.00045440,0.00247911,0.00375271,0.00062908,-0.00469854,-0.0036
 0556,0.00044886,-0.00007563,-0.05278645,0.00444982,0.03269163,-0.33574
 818,0.02615997,0.13223507,0.39883130,0.00101077,0.00593582,0.00074420,
 -0.00061356,-0.00316377,-0.00051635,0.00049715,0.00044152,-0.00012265,
 0.00040626,0.00647112,0.00162060,0.00050505,0.00018351,-0.00008054,0.0
 0753069,0.00388039,-0.00390979,0.02651237,-0.03434856,-0.00836810,-0.0
 3256583,0.02407654,-0.00442154,0.00173530,-0.00604546,-0.00092368,-0.0
 0043112,0.00239231,0.00312874,-0.00018624,-0.00107265,-0.00108834,0.00
 109874,-0.00758572,-0.00059362,0.00001753,0.00133607,-0.01229742,0.001
 26255,0.00600695,0.13214771,-0.00808102,-0.13522893,-0.16755924,0.0109
 2401,0.14513622,-0.27526872,0.01906691,0.12061360,-0.05336788,0.008200
 09,-0.04245070,-0.00002780,0.00065669,0.00104642,-0.02826826,0.0024375
 6,0.03872198,0.00244335,-0.00080401,0.00018233,0.05639590,-0.00588057,
 -0.02285252,-0.10944434,0.00770262,-0.02966902,-0.02457308,0.00002267,
 0.05151889,0.71370747,0.02404950,-0.05702880,-0.00555749,0.00403412,-0
 .00672659,-0.00105998,0.00069329,0.00606055,0.00063668,0.00247692,0.01
 268204,0.00068076,-0.00085786,-0.00330256,-0.00049062,-0.00158787,-0.0
 0878903,0.00397439,0.00110701,-0.05569294,0.02516378,0.00306346,0.0053
 4364,-0.00448599,-0.06929710,0.13961819,0.05565007,0.00261312,-0.17936
 343,0.01956921,-0.00891766,0.09266019,-0.00027682,0.00127794,-0.010348
 70,0.04073660,0.00067384,-0.07057321,-0.00047871,-0.00013808,0.0027237
 0,-0.09855136,0.01297699,-0.03152547,0.08097083,0.01092114,-0.34419643
 ,0.00879807,0.00082311,-0.02121619,0.00313183,-0.04070883,0.73721987,-
 0.04449439,0.00821738,-0.02050866,-0.00113311,0.00067216,0.00279192,-0
 .00315040,0.00045424,-0.00080678,0.00175315,-0.00065519,0.00291545,-0.
 00483901,0.00079612,-0.00342419,0.00112344,0.00033566,0.00433820,-0.02
 171912,0.00455806,-0.01280341,0.01176050,-0.00191553,-0.00070345,-0.27
 951025,0.03707785,-0.13806616,0.34132026,0.00524686,0.00340855,0.00130
 802,0.00061923,0.00563718,0.00035345,0.00040882,0.00065231,0.00014544,
 -0.00055213,-0.00285934,-0.00067105,0.00077398,0.00050761,0.00051814,0
 .00021414,0.00654187,0.00014210,0.00676813,0.00664582,0.00392295,-0.00
 197745,-0.00484638,-0.00069193,0.03879957,-0.04287691,0.02501653,-0.05
 108566,0.03306944,0.00697136,-0.00143168,0.01942826,0.00055497,0.00099
 435,-0.00951693,-0.00025150,-0.00003667,0.00163092,-0.00097543,-0.0004
 8559,0.00587465,-0.00342542,0.00055064,-0.00206241,0.01095938,-0.00062
 140,-0.00210376,-0.05672438,0.00944689,-0.03363256,0.00177430,-0.00089
 871,0.00545852,-0.13113735,0.02243851,-0.15967139,0.17143613,-0.029056
 13,0.18550402,-0.07899242,0.00140480,0.00132969,0.02435322,0.00083882,
 -0.03077680,-0.00966319,-0.00043236,0.01021517,-0.00234752,0.00090787,
 -0.00103123,-0.00168356,0.00034366,-0.00195688,-0.00177599,0.00011356,
 -0.00043893,-0.00345415,0.00061991,0.00099775,-0.00239774,0.00019655,0
 .00234999,0.01742488,-0.00435824,0.03584294,-0.00695791,0.00033880,-0.
 00943770,0.92397499,0.00231923,-0.05704564,0.00981778,-0.00160575,0.00
 220580,0.00483405,0.00055375,-0.00437585,-0.00243763,0.00073274,0.0050
 9248,0.00042347,-0.00007397,0.00034012,-0.00018804,0.00004955,-0.00172
 169,0.00039273,0.00090068,0.00378151,-0.00013169,0.00075547,0.00051343
 ,-0.00065658,-0.00364923,0.00445550,-0.00377502,0.00038308,-0.00676766
 ,0.00103145,-0.26630948,0.92120699,0.00238179,0.00866134,-0.13589581,-
 0.03233861,0.00507333,-0.00752083,0.01535363,-0.00193494,-0.00814341,-
 0.00542981,0.00101644,-0.00211965,0.00570983,-0.00095364,0.00527733,-0
 .00084237,0.00076317,-0.00945000,0.00689713,-0.00039126,0.00141859,-0.
 00682616,0.00057126,0.00455975,0.03412072,-0.00425862,-0.00871709,-0.0
 1492369,0.00149797,-0.01053734,-0.07848942,-0.00922002,0.47656942,-0.0
 0615070,0.00563154,0.00420678,-0.01334262,0.00033405,0.00646398,0.0060
 3330,-0.00021032,-0.01002352,-0.00004397,0.00007307,-0.00131053,0.0015
 4056,-0.00028153,0.00120333,-0.00068337,0.00018602,-0.00138940,-0.0000
 3169,-0.00008061,-0.00016943,-0.00027115,-0.00008285,0.00075154,0.0020
 7536,-0.00036697,0.00106456,0.00085590,0.00014842,0.00137925,-0.527772
 98,0.17011263,0.14330753,0.57419750,0.00202486,0.00834423,0.00106353,0
 .00332615,-0.00132643,-0.00173850,-0.00177850,0.00163536,0.00175529,-0
 .00001467,-0.00058403,0.00009348,-0.00044643,0.00009443,-0.00038446,-0
 .00004607,0.00009443,0.00037119,0.00016990,-0.00046529,0.00036666,0.00
 005739,-0.00018242,-0.00026823,-0.00054531,0.00089941,-0.00050066,0.00
 000151,0.00085053,-0.00036038,0.16247031,-0.14814860,-0.05146713,-0.17
 749700,0.12373477,0.03146684,-0.00799886,-0.00558207,0.00192477,-0.000
 35080,0.00298849,-0.00455485,0.00023963,-0.00750893,0.00153135,-0.0000
 5193,0.00126889,-0.00137804,0.00022264,-0.00120347,0.00031499,-0.00038
 158,0.00232449,0.00038787,0.00018134,0.00068553,0.00198562,-0.00003708
 ,-0.00194265,-0.00875236,0.00130926,-0.00847552,0.00231338,-0.00043085
 ,0.00249741,0.16086458,-0.05817273,-0.13466797,-0.16576929,0.06023976,
 0.12233626,0.01085132,0.00525561,-0.00152821,-0.00103800,-0.00064730,0
 .00214924,0.00101190,0.00024333,-0.00112742,0.00021853,-0.00021407,0.0
 0017238,0.00013854,0.00000196,-0.00008394,0.00009958,-0.00001809,0.000
 76950,0.00002085,-0.00002443,-0.00014715,0.00094921,-0.00018238,-0.000
 65922,-0.00779759,0.00182895,-0.00590640,0.00293593,-0.00150366,0.0047
 6114,-0.15250199,0.17386931,-0.03199175,0.00146033,0.03345851,-0.00683
 729,0.12983898,0.00793167,-0.00609694,0.00376034,-0.00507298,-0.000722
 04,0.00278218,0.00101303,-0.00022044,-0.00008373,0.00015712,0.00008931
 ,-0.00043792,0.00087576,-0.00000247,0.00131085,0.00016373,-0.00013649,
 -0.00160175,0.00069518,-0.00001529,-0.00028931,-0.00135500,0.00016690,
 0.00100470,0.00546075,-0.00115599,0.00224959,-0.00286687,0.00104725,-0
 .00146034,0.18043465,-0.55086799,0.08950026,-0.00356680,0.00100672,0.0
 0833328,-0.18996217,0.59406854,-0.01049278,0.02603881,-0.00857576,0.00
 957629,0.00076340,-0.00298511,-0.00353518,0.00120095,0.00213876,0.0011
 4663,-0.00152342,0.00002636,-0.00151999,0.00002744,-0.00154339,-0.0006
 6370,0.00034976,0.00248219,-0.00193722,-0.00070973,0.00080359,0.001567
 51,-0.00019894,-0.00099689,-0.00566817,0.00087335,-0.00075299,0.003276
 46,0.00076471,0.00116516,-0.03956296,0.11031952,-0.10304551,0.00962474
 ,-0.01136999,0.01841761,0.04098617,-0.11053250,0.08483335,0.00216157,-
 0.00725111,-0.00340163,0.00041594,-0.00036501,0.00125493,0.00053870,-0
 .00030779,-0.00133840,0.00047639,0.00023035,0.00012256,-0.00022151,0.0
 0016755,-0.00053390,-0.00043852,-0.00020243,0.00113625,-0.00035043,0.0
 0018873,0.00046106,0.00134761,-0.00001243,-0.00087780,-0.00681630,0.00
 109185,-0.00516333,0.00368303,0.00028614,0.00430655,-0.17106804,-0.057
 88003,-0.04639856,-0.03512665,-0.02288527,-0.01283731,0.01353843,0.011
 78924,-0.00060260,0.69528276,-0.00710772,0.00543544,-0.00032838,0.0027
 3329,-0.00088539,-0.00223183,-0.00056749,0.00031787,0.00026144,-0.0002
 5367,-0.00024071,0.00054964,-0.00046926,0.00015959,-0.00075304,-0.0000
 4176,-0.00015475,0.00080393,-0.00067908,-0.00006693,0.00017217,0.00080
 918,-0.00003049,-0.00049333,-0.00202215,-0.00033143,-0.00052984,0.0021
 8439,0.00025106,-0.00079534,-0.06243156,-0.16350459,-0.05312244,0.0118
 2622,0.01324371,-0.00072047,-0.02328779,-0.03420748,-0.01395830,-0.095
 44328,0.68842802,-0.02025710,-0.01425966,-0.00755735,0.00849398,-0.002
 98951,-0.00379032,-0.00317195,-0.00035228,0.00171330,0.00141588,0.0011
 6200,0.00027236,-0.00156273,0.00054253,-0.00163518,-0.00100668,-0.0005
 0881,0.00235379,-0.00192796,0.00087297,0.00119799,0.00154246,-0.000107
 38,-0.00088665,-0.00266079,0.00107877,0.00050440,0.00232198,-0.0025108
 4,-0.00206793,-0.02885864,-0.03273002,-0.07388881,0.01018942,0.0038212
 6,0.01030167,0.00099467,0.00434136,0.00972165,-0.03421549,0.03921142,0
 .10400338,-0.00105579,0.00066791,-0.00023865,0.00062979,-0.00005254,-0
 .00060652,-0.00031034,0.00007949,0.00024600,-0.00001878,-0.00006486,0.
 00003919,-0.00008903,0.00000849,-0.00008557,0.00000356,0.00002682,0.00
 003249,0.00010426,-0.00005200,0.00007476,-0.00006461,0.00000562,0.0000
 1528,-0.00019354,0.00005307,0.00009778,-0.00006788,0.00009022,0.000416
 21,0.01354274,-0.02260551,0.00481960,-0.00188599,0.00362699,0.00025463
 ,-0.00264808,-0.00725402,-0.00196926,-0.09356509,0.09125552,-0.0129918
 7,0.08541613,0.00051835,0.00145427,0.00061985,-0.00076172,0.00020807,-
 0.00004052,0.00039277,0.00003463,-0.00003042,-0.00032749,-0.00008837,-
 0.00011829,0.00028956,-0.00006331,0.00025254,0.00007280,0.00006114,-0.
 00039847,0.00032676,-0.00008705,-0.00013737,-0.00027843,0.00001446,0.0
 0018677,0.00019888,-0.00007368,-0.00024549,0.00003726,0.00003729,0.000
 20488,0.00519460,-0.01932235,0.00446685,0.00126514,0.00306130,-0.00021
 160,-0.00218189,-0.00076124,-0.00163678,0.09799374,-0.42178490,0.02969
 810,-0.09922492,0.43669056,-0.00083419,0.00101185,-0.00033263,-0.00059
 496,0.00017638,-0.00045045,0.00045223,0.00004146,-0.00011974,-0.000634
 37,-0.00004459,-0.00014731,0.00028313,-0.00004662,0.00014106,0.0000794
 8,0.00001723,-0.00045218,0.00043793,-0.00009998,-0.00023489,-0.0002434
 3,0.00001398,0.00011902,0.00052619,-0.00011211,-0.00000655,0.00018928,
 -0.00009627,-0.00071626,-0.00287662,-0.01791104,-0.00407281,0.00199300
 ,0.00038876,-0.00203938,-0.00099435,-0.00228364,0.00338878,-0.01548831
 ,0.06312866,-0.00826214,0.01605957,-0.03570591,0.01602237,0.00302934,-
 0.00062276,0.00069258,-0.00731310,0.00195775,-0.00521110,-0.00048580,-
 0.00017473,0.00273135,0.00104507,-0.00230656,0.04350009,0.00675275,-0.
 00137927,0.00057346,-0.07475203,0.00291228,0.02339545,0.00611882,0.002
 46322,-0.03548637,0.00729851,-0.00134454,-0.00099593,-0.00768699,0.001
 41645,0.00334748,0.00009490,0.00009917,-0.00250021,-0.00026690,0.00010
 621,-0.00069492,0.00015816,-0.00003428,0.00012558,0.00016813,-0.000177
 36,0.00022598,0.00025481,0.00011263,0.00024146,-0.00000873,-0.00003210
 ,-0.00002711,0.06565911,-0.00072379,-0.00215754,0.00036185,0.00171841,
 0.00666457,0.00077888,-0.00007857,-0.00040293,-0.00024229,0.00059278,0
 .00643191,-0.00134116,-0.00159820,-0.00454799,-0.00111781,0.00280327,-
 0.03832385,0.02235702,-0.00048640,0.00553266,0.00834487,-0.00103159,-0
 .00444972,-0.00088531,0.00175657,0.00611857,-0.00031542,0.00005793,-0.
 00016688,0.00044772,0.00007028,0.00045222,-0.00064100,-0.00014165,0.00
 000737,0.00018719,-0.00001157,-0.00002028,0.00005265,0.00014084,0.0000
 7910,0.00025337,-0.00000244,-0.00004547,-0.00002185,-0.00304686,0.0248
 3880,0.00035363,-0.00042050,-0.00809685,0.00032769,-0.00003305,0.00697
 020,0.00191870,-0.00009706,-0.00218687,0.00022162,0.00379697,-0.051586
 54,0.00423201,-0.00153849,0.01094605,0.02363522,0.02248743,-0.40453572
 ,0.00762922,0.00326163,-0.05490586,-0.00471831,-0.00047631,0.00986003,
 -0.00172916,0.00035218,0.00585376,-0.00159871,0.00030508,-0.00271266,-
 0.00010740,-0.00028692,0.01037227,0.00148622,-0.00037561,-0.00229224,-
 0.00076383,0.00170086,-0.00288159,-0.00131444,-0.00095834,-0.00280532,
 -0.00003062,0.00047870,0.00049454,-0.02998900,-0.02819017,0.48711477,0
 .00177027,0.00042921,0.00012640,-0.00102590,0.00021583,0.00035593,0.00
 033761,0.00002178,-0.00018782,-0.00020299,-0.00008116,-0.00003485,0.00
 018809,-0.00004078,0.00022594,0.00021766,0.00001876,-0.00038637,0.0002
 9860,-0.00011190,-0.00036386,-0.00041458,0.00002999,0.00020809,0.00090
 780,-0.00042443,-0.00076659,-0.00165503,0.00132542,0.00189268,-0.02041
 344,0.00234131,0.00534506,-0.00101200,-0.00188809,-0.00104048,0.002753
 95,0.00173408,-0.00045191,-0.41011270,0.08338255,0.08145337,0.00021138
 ,-0.00348331,0.00167254,-0.00006606,-0.00001900,0.00044716,0.42821732,
 0.00072391,-0.00130357,-0.00035837,-0.00008608,0.00011967,0.00021473,0
 .00025546,-0.00005140,-0.00022333,-0.00000964,0.00003409,-0.00010779,0
 .00008037,-0.00001944,0.00002022,-0.00017798,0.00005453,0.00008153,0.0
 0037599,-0.00009882,0.00023311,0.00006859,-0.00000598,-0.00004984,-0.0
 0210394,0.00080003,-0.00142126,0.00174760,-0.00113173,0.00003182,-0.01
 940217,0.01370635,0.01043844,-0.00734935,-0.00226549,-0.00235721,0.003
 37569,-0.00217206,-0.00046094,0.07245890,-0.08670811,-0.02752328,0.033
 44218,0.00066467,-0.00845630,0.00005075,-0.00001056,-0.00000641,-0.083
 45026,0.07838784,0.00138352,-0.00074369,-0.00141499,-0.00040387,0.0002
 5185,0.00033965,0.00057495,-0.00008851,-0.00016451,-0.00039252,0.00000
 200,-0.00036498,0.00055812,-0.00008208,0.00034977,-0.00017156,0.000092
 98,-0.00039343,0.00082035,-0.00015897,0.00008148,-0.00014737,0.0000186
 9,0.00010626,-0.00494188,0.00016596,-0.00411495,0.00325224,-0.00051730
 ,0.00146230,-0.01806355,-0.00130931,-0.00013811,-0.00300816,-0.0016349
 5,0.00289190,0.00020646,0.00170577,-0.00219619,0.11489042,-0.03023595,
 -0.02917483,-0.00613304,0.00261716,-0.00333143,0.00007121,-0.00002852,
 0.00039203,-0.08849531,0.02994487,0.03567002\\-0.00000994,-0.00000889,
 0.00000737,-0.00000623,0.00000691,-0.00000664,0.00000711,-0.00000409,-
 0.00000426,-0.00000373,-0.00000327,0.00000430,0.00000453,-0.00000425,-
 0.00000300,0.00001133,-0.00000477,-0.00000656,-0.00000119,0.00000077,-
 0.00000792,0.00000228,0.00000022,0.00000462,0.00000510,-0.00000059,0.0
 0001122,-0.00000456,0.00000506,-0.00000284,0.00001540,0.00000956,0.000
 00487,-0.00000373,0.00000105,-0.00000206,0.00000241,0.00000149,0.00000
 162,-0.00001277,0.00000376,-0.00001974,-0.00000059,-0.00000251,0.00000
 598,0.00000090,-0.00000119,0.00000323,-0.00000629,0.00000076,0.0000098
 0\\\@
 The archive entry for this job was punched.


 THERE IS NOTHING NOBLE IN BEING SUPERIOR TO SOME OTHER MAN.
 TRUE NOBILITY IS BEING SUPERIOR TO YOUR FORMER SELF.

                                                   -- HINDU PROVERB
 Job cpu time:       0 days  1 hours 10 minutes 39.7 seconds.
 Elapsed time:       0 days  0 hours  4 minutes 26.9 seconds.
 File lengths (MBytes):  RWF=    180 Int=      0 D2E=      0 Chk=      8 Scr=      1
 Normal termination of Gaussian 16 at Fri May 20 19:56:46 2022.
