 Entering Gaussian System, Link 0=g16
 AtFile(1): /home/561/yj5695/Basis/6-31pGd.gbs
 Initial command:
 /apps/gaussian/g16c01/g16/l1.exe "/jobfs/48698387.gadi-pbs/Gau-2134263.inp" -scrdir="/jobfs/48698387.gadi-pbs/"
 Entering Link 1 = /apps/gaussian/g16c01/g16/l1.exe PID=   2134265.
  
 Copyright (c) 1988-2019, Gaussian, Inc.  All Rights Reserved.
  
 This is part of the Gaussian(R) 16 program.  It is based on
 the Gaussian(R) 09 system (copyright 2009, Gaussian, Inc.),
 the Gaussian(R) 03 system (copyright 2003, Gaussian, Inc.),
 the Gaussian(R) 98 system (copyright 1998, Gaussian, Inc.),
 the Gaussian(R) 94 system (copyright 1995, Gaussian, Inc.),
 the Gaussian 92(TM) system (copyright 1992, Gaussian, Inc.),
 the Gaussian 90(TM) system (copyright 1990, Gaussian, Inc.),
 the Gaussian 88(TM) system (copyright 1988, Gaussian, Inc.),
 the Gaussian 86(TM) system (copyright 1986, Carnegie Mellon
 University), and the Gaussian 82(TM) system (copyright 1983,
 Carnegie Mellon University). Gaussian is a federally registered
 trademark of Gaussian, Inc.
  
 This software contains proprietary and confidential information,
 including trade secrets, belonging to Gaussian, Inc.
  
 This software is provided under written license and may be
 used, copied, transmitted, or stored only in accord with that
 written license.
  
 The following legend is applicable only to US Government
 contracts under FAR:
  
                    RESTRICTED RIGHTS LEGEND
  
 Use, reproduction and disclosure by the US Government is
 subject to restrictions as set forth in subparagraphs (a)
 and (c) of the Commercial Computer Software - Restricted
 Rights clause in FAR 52.227-19.
  
 Gaussian, Inc.
 340 Quinnipiac St., Bldg. 40, Wallingford CT 06492
  
  
 ---------------------------------------------------------------
 Warning -- This program may not be used in any manner that
 competes with the business of Gaussian, Inc. or will provide
 assistance to any competitor of Gaussian, Inc.  The licensee
 of this program is prohibited from giving any competitor of
 Gaussian, Inc. access to this program.  By using this program,
 the user acknowledges that Gaussian, Inc. is engaged in the
 business of creating and licensing software in the field of
 computational chemistry and represents and warrants to the
 licensee that it is not a competitor of Gaussian, Inc. and that
 it will not use this program in any manner prohibited above.
 ---------------------------------------------------------------
  

 Cite this work as:
 Gaussian 16, Revision C.01,
 M. J. Frisch, G. W. Trucks, H. B. Schlegel, G. E. Scuseria, 
 M. A. Robb, J. R. Cheeseman, G. Scalmani, V. Barone, 
 G. A. Petersson, H. Nakatsuji, X. Li, M. Caricato, A. V. Marenich, 
 J. Bloino, B. G. Janesko, R. Gomperts, B. Mennucci, H. P. Hratchian, 
 J. V. Ortiz, A. F. Izmaylov, J. L. Sonnenberg, D. Williams-Young, 
 F. Ding, F. Lipparini, F. Egidi, J. Goings, B. Peng, A. Petrone, 
 T. Henderson, D. Ranasinghe, V. G. Zakrzewski, J. Gao, N. Rega, 
 G. Zheng, W. Liang, M. Hada, M. Ehara, K. Toyota, R. Fukuda, 
 J. Hasegawa, M. Ishida, T. Nakajima, Y. Honda, O. Kitao, H. Nakai, 
 T. Vreven, K. Throssell, J. A. Montgomery, Jr., J. E. Peralta, 
 F. Ogliaro, M. J. Bearpark, J. J. Heyd, E. N. Brothers, K. N. Kudin, 
 V. N. Staroverov, T. A. Keith, R. Kobayashi, J. Normand, 
 K. Raghavachari, A. P. Rendell, J. C. Burant, S. S. Iyengar, 
 J. Tomasi, M. Cossi, J. M. Millam, M. Klene, C. Adamo, R. Cammi, 
 J. W. Ochterski, R. L. Martin, K. Morokuma, O. Farkas, 
 J. B. Foresman, and D. J. Fox, Gaussian, Inc., Wallingford CT, 2019.
 
 ******************************************
 Gaussian 16:  ES64L-G16RevC.01  3-Jul-2019
                29-Jun-2022 
 ******************************************
 %nproc=16
 Will use up to   16 processors via shared memory.
 %mem=40gb
 --------------------------------------------------
 #M062X/gen 6D INT(grid=ultrafine) OPT Freq=noraman
 --------------------------------------------------
 1/18=20,19=15,26=4,38=1/1,3;
 2/9=110,12=2,17=6,18=5,40=1/2;
 3/5=7,8=2,11=2,25=1,30=1,71=1,74=-55,75=-5/1,2,3;
 4//1;
 5/5=2,38=5/2;
 6/7=2,8=2,9=2,10=2,28=1/1;
 7//1,2,3,16;
 1/18=20,19=15,26=4/3(2);
 2/9=110/2;
 99//99;
 2/9=110/2;
 3/5=7,6=1,8=2,11=2,25=1,30=1,71=1,74=-55,75=-5,82=7/1,2,3;
 4/5=5,16=3,69=1/1;
 5/5=2,38=5/2;
 7//1,2,3,16;
 1/18=20,19=15,26=4/3(-5);
 2/9=110/2;
 6/7=2,8=2,9=2,10=2,19=2,28=1/1;
 99/9=1/99;
 ----------
 HA.9.freq
 ----------
 Symbolic Z-matrix:
 Charge =  0 Multiplicity = 1
 C                    -1.2848    0.77337  -0.91348 
 C                    -2.47789   0.89674  -1.63357 
 H                    -3.43722   0.89396  -1.1244 
 C                    -2.4216    1.03196  -3.00904 
 H                    -3.32823   1.13596  -3.59666 
 C                    -1.17969   1.04391  -3.66437 
 O                    -1.22819   1.18661  -5.01151 
 C                     0.00901   0.91688  -2.93728 
 H                     0.97478   0.92817  -3.42814 
 C                    -0.04966   0.77692  -1.55247 
 H                     0.86847   0.68114  -0.98131 
 S                    -1.36049   0.54974   0.83882 
 O                    -0.04277   0.85683   1.3981 
 O                    -2.53777   1.26244   1.34012 
 N                    -1.63283  -1.04854   1.17202 
 H                    -0.88012  -1.63862   0.81145 
 H                    -2.53377  -1.35873   0.80147 
 C                     0.0075    1.21069  -5.72483 
 H                    -0.26017   1.33281  -6.77351 
 H                     0.55023   0.27058  -5.5871 
 H                     0.62448   2.05337  -5.39827 
 

 GradGradGradGradGradGradGradGradGradGradGradGradGradGradGradGradGradGrad
 Berny optimization.
 Initialization pass.
                           ----------------------------
                           !    Initial Parameters    !
                           ! (Angstroms and Degrees)  !
 --------------------------                            --------------------------
 ! Name  Definition              Value          Derivative Info.                !
 --------------------------------------------------------------------------------
 ! R1    R(1,2)                  1.399          estimate D2E/DX2                !
 ! R2    R(1,10)                 1.3906         estimate D2E/DX2                !
 ! R3    R(1,12)                 1.7681         estimate D2E/DX2                !
 ! R4    R(2,3)                  1.0861         estimate D2E/DX2                !
 ! R5    R(2,4)                  1.3832         estimate D2E/DX2                !
 ! R6    R(4,5)                  1.0854         estimate D2E/DX2                !
 ! R7    R(4,6)                  1.4043         estimate D2E/DX2                !
 ! R8    R(6,7)                  1.3555         estimate D2E/DX2                !
 ! R9    R(6,8)                  1.3992         estimate D2E/DX2                !
 ! R10   R(7,18)                 1.427          estimate D2E/DX2                !
 ! R11   R(8,9)                  1.0834         estimate D2E/DX2                !
 ! R12   R(8,10)                 1.3931         estimate D2E/DX2                !
 ! R13   R(10,11)                1.0855         estimate D2E/DX2                !
 ! R14   R(12,13)                1.4641         estimate D2E/DX2                !
 ! R15   R(12,14)                1.4647         estimate D2E/DX2                !
 ! R16   R(12,15)                1.6552         estimate D2E/DX2                !
 ! R17   R(15,16)                1.0221         estimate D2E/DX2                !
 ! R18   R(15,17)                1.0224         estimate D2E/DX2                !
 ! R19   R(18,19)                1.0892         estimate D2E/DX2                !
 ! R20   R(18,20)                1.0942         estimate D2E/DX2                !
 ! R21   R(18,21)                1.0943         estimate D2E/DX2                !
 ! A1    A(2,1,10)             121.3807         estimate D2E/DX2                !
 ! A2    A(2,1,12)             118.9962         estimate D2E/DX2                !
 ! A3    A(10,1,12)            119.5853         estimate D2E/DX2                !
 ! A4    A(1,2,3)              120.781          estimate D2E/DX2                !
 ! A5    A(1,2,4)              119.0607         estimate D2E/DX2                !
 ! A6    A(3,2,4)              120.157          estimate D2E/DX2                !
 ! A7    A(2,4,5)              120.9119         estimate D2E/DX2                !
 ! A8    A(2,4,6)              120.0578         estimate D2E/DX2                !
 ! A9    A(5,4,6)              119.0293         estimate D2E/DX2                !
 ! A10   A(4,6,7)              115.6604         estimate D2E/DX2                !
 ! A11   A(4,6,8)              120.5341         estimate D2E/DX2                !
 ! A12   A(7,6,8)              123.8054         estimate D2E/DX2                !
 ! A13   A(6,7,18)             117.8767         estimate D2E/DX2                !
 ! A14   A(6,8,9)              121.3937         estimate D2E/DX2                !
 ! A15   A(6,8,10)             119.3335         estimate D2E/DX2                !
 ! A16   A(9,8,10)             119.2725         estimate D2E/DX2                !
 ! A17   A(1,10,8)             119.6315         estimate D2E/DX2                !
 ! A18   A(1,10,11)            120.6119         estimate D2E/DX2                !
 ! A19   A(8,10,11)            119.7541         estimate D2E/DX2                !
 ! A20   A(1,12,13)            108.2721         estimate D2E/DX2                !
 ! A21   A(1,12,14)            108.1833         estimate D2E/DX2                !
 ! A22   A(1,12,15)            109.188          estimate D2E/DX2                !
 ! A23   A(13,12,14)           119.3824         estimate D2E/DX2                !
 ! A24   A(13,12,15)           105.8866         estimate D2E/DX2                !
 ! A25   A(14,12,15)           105.5875         estimate D2E/DX2                !
 ! A26   A(12,15,16)           111.4237         estimate D2E/DX2                !
 ! A27   A(12,15,17)           111.408          estimate D2E/DX2                !
 ! A28   A(16,15,17)           110.2394         estimate D2E/DX2                !
 ! A29   A(7,18,19)            105.6868         estimate D2E/DX2                !
 ! A30   A(7,18,20)            110.6142         estimate D2E/DX2                !
 ! A31   A(7,18,21)            110.6132         estimate D2E/DX2                !
 ! A32   A(19,18,20)           109.8415         estimate D2E/DX2                !
 ! A33   A(19,18,21)           109.8499         estimate D2E/DX2                !
 ! A34   A(20,18,21)           110.1453         estimate D2E/DX2                !
 ! D1    D(10,1,2,3)          -179.9268         estimate D2E/DX2                !
 ! D2    D(10,1,2,4)            -0.3487         estimate D2E/DX2                !
 ! D3    D(12,1,2,3)             2.3204         estimate D2E/DX2                !
 ! D4    D(12,1,2,4)          -178.1016         estimate D2E/DX2                !
 ! D5    D(2,1,10,8)             0.5345         estimate D2E/DX2                !
 ! D6    D(2,1,10,11)          179.9532         estimate D2E/DX2                !
 ! D7    D(12,1,10,8)          178.2743         estimate D2E/DX2                !
 ! D8    D(12,1,10,11)          -2.307          estimate D2E/DX2                !
 ! D9    D(2,1,12,13)         -162.8715         estimate D2E/DX2                !
 ! D10   D(2,1,12,14)          -32.1564         estimate D2E/DX2                !
 ! D11   D(2,1,12,15)           82.2859         estimate D2E/DX2                !
 ! D12   D(10,1,12,13)          19.3346         estimate D2E/DX2                !
 ! D13   D(10,1,12,14)         150.0496         estimate D2E/DX2                !
 ! D14   D(10,1,12,15)         -95.5081         estimate D2E/DX2                !
 ! D15   D(1,2,4,5)           -179.62           estimate D2E/DX2                !
 ! D16   D(1,2,4,6)              0.0099         estimate D2E/DX2                !
 ! D17   D(3,2,4,5)             -0.0393         estimate D2E/DX2                !
 ! D18   D(3,2,4,6)            179.5906         estimate D2E/DX2                !
 ! D19   D(2,4,6,7)           -179.7304         estimate D2E/DX2                !
 ! D20   D(2,4,6,8)              0.1391         estimate D2E/DX2                !
 ! D21   D(5,4,6,7)             -0.0935         estimate D2E/DX2                !
 ! D22   D(5,4,6,8)            179.776          estimate D2E/DX2                !
 ! D23   D(4,6,7,18)           179.7383         estimate D2E/DX2                !
 ! D24   D(8,6,7,18)            -0.1264         estimate D2E/DX2                !
 ! D25   D(4,6,8,9)           -179.7591         estimate D2E/DX2                !
 ! D26   D(4,6,8,10)             0.045          estimate D2E/DX2                !
 ! D27   D(7,6,8,9)              0.0994         estimate D2E/DX2                !
 ! D28   D(7,6,8,10)           179.9035         estimate D2E/DX2                !
 ! D29   D(6,7,18,19)         -179.9097         estimate D2E/DX2                !
 ! D30   D(6,7,18,20)           61.254          estimate D2E/DX2                !
 ! D31   D(6,7,18,21)          -61.064          estimate D2E/DX2                !
 ! D32   D(6,8,10,1)            -0.3756         estimate D2E/DX2                !
 ! D33   D(6,8,10,11)         -179.7993         estimate D2E/DX2                !
 ! D34   D(9,8,10,1)           179.4327         estimate D2E/DX2                !
 ! D35   D(9,8,10,11)            0.009          estimate D2E/DX2                !
 ! D36   D(1,12,15,16)          60.8574         estimate D2E/DX2                !
 ! D37   D(1,12,15,17)         -62.7153         estimate D2E/DX2                !
 ! D38   D(13,12,15,16)        -55.5147         estimate D2E/DX2                !
 ! D39   D(13,12,15,17)       -179.0874         estimate D2E/DX2                !
 ! D40   D(14,12,15,16)        176.9685         estimate D2E/DX2                !
 ! D41   D(14,12,15,17)         53.3958         estimate D2E/DX2                !
 --------------------------------------------------------------------------------
 Trust Radius=3.00D-01 FncErr=1.00D-07 GrdErr=1.00D-06 EigMax=2.50D+02 EigMin=1.00D-04
 Number of steps in this run=    106 maximum allowed number of steps=    126.
 GradGradGradGradGradGradGradGradGradGradGradGradGradGradGradGradGradGrad

                          Input orientation:                          
 ---------------------------------------------------------------------
 Center     Atomic      Atomic             Coordinates (Angstroms)
 Number     Number       Type             X           Y           Z
 ---------------------------------------------------------------------
      1          6           0       -1.284798    0.773370   -0.913484
      2          6           0       -2.477888    0.896739   -1.633569
      3          1           0       -3.437219    0.893957   -1.124401
      4          6           0       -2.421598    1.031958   -3.009039
      5          1           0       -3.328228    1.135963   -3.596662
      6          6           0       -1.179685    1.043913   -3.664374
      7          8           0       -1.228185    1.186606   -5.011510
      8          6           0        0.009014    0.916877   -2.937280
      9          1           0        0.974777    0.928169   -3.428140
     10          6           0       -0.049658    0.776923   -1.552471
     11          1           0        0.868465    0.681140   -0.981307
     12         16           0       -1.360485    0.549741    0.838821
     13          8           0       -0.042767    0.856831    1.398102
     14          8           0       -2.537772    1.262443    1.340117
     15          7           0       -1.632833   -1.048543    1.172016
     16          1           0       -0.880118   -1.638620    0.811453
     17          1           0       -2.533769   -1.358729    0.801465
     18          6           0        0.007502    1.210690   -5.724833
     19          1           0       -0.260166    1.332814   -6.773515
     20          1           0        0.550226    0.270585   -5.587100
     21          1           0        0.624482    2.053367   -5.398268
 ---------------------------------------------------------------------
                    Distance matrix (angstroms):
                    1          2          3          4          5
     1  C    0.000000
     2  C    1.399002   0.000000
     3  H    2.166089   1.086082   0.000000
     4  C    2.398027   1.383247   2.145318   0.000000
     5  H    3.392127   2.152683   2.486468   1.085401   0.000000
     6  C    2.766159   2.414780   3.401530   1.404263   2.151580
     7  O    4.119197   3.613346   4.480523   2.336245   2.532694
     8  C    2.406303   2.807980   3.894044   2.434393   3.408807
     9  H    3.384248   3.891320   4.977358   3.423708   4.311314
    10  C    1.390643   2.432537   3.416505   2.795127   3.880290
    11  H    2.156305   3.416140   4.313315   3.880630   4.965802
    12  S    1.768138   2.735271   2.878463   4.020513   4.887656
    13  O    2.625459   3.888758   4.229267   5.011228   5.984968
    14  O    2.624472   2.996686   2.649270   4.356808   5.001260
    15  N    2.791022   3.517036   3.507513   4.736228   5.512415
    16  H    2.992803   3.867692   4.086593   4.909614   5.755262
    17  H    3.007794   3.319585   3.098351   4.499768   5.118416
    18  C    5.001037   4.797309   5.755901   3.648014   3.957498
    19  H    5.975183   5.614936   6.496056   4.351273   4.420877
    20  H    5.046067   5.019159   6.016975   4.007222   4.444450
    21  H    5.039547   5.013527   6.008959   4.003785   4.439745
                    6          7          8          9         10
     6  C    0.000000
     7  O    1.355540   0.000000
     8  C    1.399217   2.430194   0.000000
     9  H    2.170463   2.725232   1.083406   0.000000
    10  C    2.410058   3.677189   1.393100   2.142540   0.000000
    11  H    3.394904   4.570993   2.149433   2.461568   1.085520
    12  S    4.533835   5.886380   4.033517   4.878895   2.736450
    13  O    5.191941   6.526645   4.336108   4.932859   2.951663
    14  O    5.190094   6.485671   4.990157   5.931780   3.846233
    15  N    5.289081   6.587535   4.841989   5.645215   3.641648
    16  H    5.226734   6.481508   4.623216   5.291804   3.480323
    17  H    5.248805   6.478731   5.061852   5.952256   4.033960
    18  C    2.383845   1.427001   2.802994   2.508034   4.195238
    19  H    3.255109   2.015713   3.868094   3.588921   5.254772
    20  H    2.699538   2.081621   2.780674   2.296468   4.110288
    21  H    2.698223   2.081642   2.779725   2.295687   4.107789
                   11         12         13         14         15
    11  H    0.000000
    12  S    2.880686   0.000000
    13  O    2.553978   1.464063   0.000000
    14  O    4.162857   1.464666   2.528425   0.000000
    15  N    3.726271   1.655205   2.491963   2.487536   0.000000
    16  H    3.413622   2.240631   2.696774   3.382820   1.022143
    17  H    4.349085   2.240591   3.386705   2.675950   1.022354
    18  C    4.850023   6.737195   7.131897   7.509635   7.440521
    19  H    5.937016   7.731207   8.188355   8.427542   8.407528
    20  H    4.634993   6.709784   7.034797   7.648911   7.224368
    21  H    4.631639   6.715822   6.933078   7.485402   7.608282
                   16         17         18         19         20
    16  H    0.000000
    17  H    1.677200   0.000000
    18  C    7.185365   7.460063   0.000000
    19  H    8.169792   8.354280   1.089171   0.000000
    20  H    6.828794   7.278698   1.094220   1.786798   0.000000
    21  H    7.379379   7.749429   1.094265   1.786926   1.794292
                   21
    21  H    0.000000
 Stoichiometry    C7H9NO3S
 Framework group  C1[X(C7H9NO3S)]
 Deg. of freedom    57
 Full point group                 C1      NOp   1
 Largest Abelian subgroup         C1      NOp   1
 Largest concise Abelian subgroup C1      NOp   1
                         Standard orientation:                         
 ---------------------------------------------------------------------
 Center     Atomic      Atomic             Coordinates (Angstroms)
 Number     Number       Type             X           Y           Z
 ---------------------------------------------------------------------
      1          6           0        0.499655    0.047857   -0.100321
      2          6           0       -0.071998    1.324327   -0.068061
      3          1           0        0.551572    2.213297   -0.089670
      4          6           0       -1.449224    1.442646   -0.016854
      5          1           0       -1.924707    2.418154    0.003025
      6          6           0       -2.253805    0.291892    0.002332
      7          8           0       -3.590752    0.511093    0.047205
      8          6           0       -1.674225   -0.981305   -0.027048
      9          1           0       -2.281716   -1.878308   -0.016660
     10          6           0       -0.286898   -1.098689   -0.074731
     11          1           0        0.169868   -2.083080   -0.101042
     12         16           0        2.261356   -0.102209   -0.114542
     13          8           0        2.603223   -1.455400   -0.556676
     14          8           0        2.812367    1.049183   -0.832825
     15          7           0        2.830765    0.025774    1.434360
     16          1           0        2.456490   -0.714122    2.032062
     17          1           0        2.621645    0.943159    1.834213
     18          6           0       -4.453130   -0.625745    0.062594
     19          1           0       -5.465944   -0.226631    0.097406
     20          1           0       -4.265270   -1.239835    0.948551
     21          1           0       -4.319952   -1.222627   -0.844825
 ---------------------------------------------------------------------
 Rotational constants (GHZ):           2.3884415           0.4134556           0.3815449
 General basis read from cards:  (6D, 7F)
 There are   250 symmetry adapted cartesian basis functions of A   symmetry.
 There are   250 symmetry adapted basis functions of A   symmetry.
   250 basis functions,   444 primitive gaussians,   250 cartesian basis functions
    49 alpha electrons       49 beta electrons
       nuclear repulsion energy       825.4708194078 Hartrees.
 NAtoms=   21 NActive=   21 NUniq=   21 SFac= 1.00D+00 NAtFMM=   60 NAOKFM=F Big=F
 Integral buffers will be    131072 words long.
 Raffenetti 2 integral format.
 Two-electron integral symmetry is turned on.
 One-electron integrals computed using PRISM.
 NBasis=   250 RedAO= T EigKep=  2.02D-06  NBF=   250
 NBsUse=   250 1.00D-06 EigRej= -1.00D+00 NBFU=   250
 ExpMin= 4.05D-02 ExpMax= 2.19D+04 ExpMxC= 3.30D+03 IAcc=3 IRadAn=         5 AccDes= 0.00D+00
 Harris functional with IExCor= 1009 and IRadAn=       5 diagonalized for initial guess.
 HarFok:  IExCor= 1009 AccDes= 0.00D+00 IRadAn=         5 IDoV= 1 UseB2=F ITyADJ=14
 ICtDFT=  3500011 ScaDFX=  1.000000  1.000000  1.000000  1.000000
 FoFCou: FMM=F IPFlag=           0 FMFlag=      100000 FMFlg1=           0
         NFxFlg=           0 DoJE=T BraDBF=F KetDBF=T FulRan=T
         wScrn=  0.000000 ICntrl=       500 IOpCl=  0 I1Cent=   200000004 NGrid=           0
         NMat0=    1 NMatS0=      1 NMatT0=    0 NMatD0=    1 NMtDS0=    0 NMtDT0=    0
 Petite list used in FoFCou.
 Requested convergence on RMS density matrix=1.00D-08 within 128 cycles.
 Requested convergence on MAX density matrix=1.00D-06.
 Requested convergence on             energy=1.00D-06.
 No special actions if energy rises.
 SCF Done:  E(RM062X) =  -950.449021103     A.U. after   16 cycles
            NFock= 16  Conv=0.72D-08     -V/T= 2.0064

 **********************************************************************

            Population analysis using the SCF Density.

 **********************************************************************

 Orbital symmetries:
       Occupied  (A) (A) (A) (A) (A) (A) (A) (A) (A) (A) (A) (A)
                 (A) (A) (A) (A) (A) (A) (A) (A) (A) (A) (A) (A)
                 (A) (A) (A) (A) (A) (A) (A) (A) (A) (A) (A) (A)
                 (A) (A) (A) (A) (A) (A) (A) (A) (A) (A) (A) (A)
                 (A)
       Virtual   (A) (A) (A) (A) (A) (A) (A) (A) (A) (A) (A) (A)
                 (A) (A) (A) (A) (A) (A) (A) (A) (A) (A) (A) (A)
                 (A) (A) (A) (A) (A) (A) (A) (A) (A) (A) (A) (A)
                 (A) (A) (A) (A) (A) (A) (A) (A) (A) (A) (A) (A)
                 (A) (A) (A) (A) (A) (A) (A) (A) (A) (A) (A) (A)
                 (A) (A) (A) (A) (A) (A) (A) (A) (A) (A) (A) (A)
                 (A) (A) (A) (A) (A) (A) (A) (A) (A) (A) (A) (A)
                 (A) (A) (A) (A) (A) (A) (A) (A) (A) (A) (A) (A)
                 (A) (A) (A) (A) (A) (A) (A) (A) (A) (A) (A) (A)
                 (A) (A) (A) (A) (A) (A) (A) (A) (A) (A) (A) (A)
                 (A) (A) (A) (A) (A) (A) (A) (A) (A) (A) (A) (A)
                 (A) (A) (A) (A) (A) (A) (A) (A) (A) (A) (A) (A)
                 (A) (A) (A) (A) (A) (A) (A) (A) (A) (A) (A) (A)
                 (A) (A) (A) (A) (A) (A) (A) (A) (A) (A) (A) (A)
                 (A) (A) (A) (A) (A) (A) (A) (A) (A) (A) (A) (A)
                 (A) (A) (A) (A) (A) (A) (A) (A) (A) (A) (A) (A)
                 (A) (A) (A) (A) (A) (A) (A) (A) (A)
 The electronic state is 1-A.
 Alpha  occ. eigenvalues --  -90.16510 -19.70312 -19.63826 -19.63734 -14.80815
 Alpha  occ. eigenvalues --  -10.64751 -10.62354 -10.59807 -10.59246 -10.59134
 Alpha  occ. eigenvalues --  -10.58288 -10.57917  -8.47484  -6.39704  -6.39639
 Alpha  occ. eigenvalues --   -6.39560  -1.23868  -1.21896  -1.12047  -1.03248
 Alpha  occ. eigenvalues --   -0.99403  -0.89350  -0.88064  -0.82676  -0.75664
 Alpha  occ. eigenvalues --   -0.72738  -0.69239  -0.65011  -0.62315  -0.61972
 Alpha  occ. eigenvalues --   -0.58789  -0.57423  -0.57203  -0.54987  -0.52709
 Alpha  occ. eigenvalues --   -0.51986  -0.50526  -0.49580  -0.48166  -0.45763
 Alpha  occ. eigenvalues --   -0.43201  -0.42030  -0.41239  -0.39362  -0.39117
 Alpha  occ. eigenvalues --   -0.37487  -0.37394  -0.33996  -0.30502
 Alpha virt. eigenvalues --   -0.01266  -0.00835  -0.00122   0.01080   0.02160
 Alpha virt. eigenvalues --    0.02946   0.03652   0.04229   0.05259   0.05767
 Alpha virt. eigenvalues --    0.06459   0.07150   0.08150   0.08452   0.09163
 Alpha virt. eigenvalues --    0.09741   0.10096   0.10681   0.10869   0.12359
 Alpha virt. eigenvalues --    0.12884   0.13092   0.13338   0.13947   0.15070
 Alpha virt. eigenvalues --    0.15288   0.15758   0.16136   0.16384   0.17480
 Alpha virt. eigenvalues --    0.18565   0.18689   0.19515   0.20158   0.20767
 Alpha virt. eigenvalues --    0.21421   0.21766   0.22407   0.22671   0.23258
 Alpha virt. eigenvalues --    0.24231   0.24850   0.25382   0.25771   0.26054
 Alpha virt. eigenvalues --    0.26878   0.27811   0.28152   0.29020   0.29172
 Alpha virt. eigenvalues --    0.29581   0.30233   0.31718   0.32027   0.32556
 Alpha virt. eigenvalues --    0.32637   0.33934   0.34662   0.34987   0.35311
 Alpha virt. eigenvalues --    0.36746   0.38261   0.39492   0.39900   0.40228
 Alpha virt. eigenvalues --    0.41798   0.43456   0.44559   0.48068   0.48641
 Alpha virt. eigenvalues --    0.55227   0.56925   0.57629   0.63567   0.66447
 Alpha virt. eigenvalues --    0.68358   0.68997   0.70668   0.71201   0.71750
 Alpha virt. eigenvalues --    0.72009   0.73045   0.75640   0.76413   0.77086
 Alpha virt. eigenvalues --    0.78710   0.80567   0.80805   0.82251   0.89082
 Alpha virt. eigenvalues --    0.90402   0.93061   0.93489   0.95803   0.96438
 Alpha virt. eigenvalues --    0.98400   0.98608   1.00012   1.01766   1.02791
 Alpha virt. eigenvalues --    1.03481   1.04890   1.06623   1.09940   1.10323
 Alpha virt. eigenvalues --    1.11158   1.11929   1.13115   1.15549   1.16465
 Alpha virt. eigenvalues --    1.17243   1.18580   1.21229   1.24182   1.26042
 Alpha virt. eigenvalues --    1.26520   1.27747   1.30672   1.33299   1.34136
 Alpha virt. eigenvalues --    1.35879   1.37427   1.38306   1.39072   1.41039
 Alpha virt. eigenvalues --    1.41717   1.42081   1.43295   1.45871   1.47890
 Alpha virt. eigenvalues --    1.48578   1.49983   1.52495   1.54132   1.56213
 Alpha virt. eigenvalues --    1.57541   1.60941   1.70303   1.72996   1.74602
 Alpha virt. eigenvalues --    1.80943   1.81279   1.82019   1.85454   1.86960
 Alpha virt. eigenvalues --    1.88508   1.91258   1.92866   1.94085   1.95866
 Alpha virt. eigenvalues --    1.98195   2.00390   2.02178   2.03366   2.05431
 Alpha virt. eigenvalues --    2.10026   2.11691   2.12651   2.14548   2.15511
 Alpha virt. eigenvalues --    2.18317   2.18815   2.19442   2.20923   2.24159
 Alpha virt. eigenvalues --    2.25994   2.29522   2.31180   2.33062   2.35125
 Alpha virt. eigenvalues --    2.37703   2.41026   2.44502   2.49054   2.55874
 Alpha virt. eigenvalues --    2.57477   2.63508   2.65676   2.70090   2.77240
 Alpha virt. eigenvalues --    2.79049   2.82035   2.83886   2.91398   2.92933
 Alpha virt. eigenvalues --    2.96818   3.05005   3.18193   3.39572   3.88344
 Alpha virt. eigenvalues --    4.08755   4.23603   4.25145   4.27090   4.27848
 Alpha virt. eigenvalues --    4.31498   4.35675   4.39795   4.46734   4.54561
 Alpha virt. eigenvalues --    4.78167
          Condensed to atoms (all electrons):
               1          2          3          4          5          6
     1  C   18.329623  -1.789292   0.101265  -0.657322   0.024081  -2.823540
     2  C   -1.789292  20.253436   0.187575  -3.416406  -0.036825   0.275702
     3  H    0.101265   0.187575   0.444116  -0.060955  -0.003487   0.001695
     4  C   -0.657322  -3.416406  -0.060955  15.574938   0.318486  -1.079951
     5  H    0.024081  -0.036825  -0.003487   0.318486   0.462774   0.005208
     6  C   -2.823540   0.275702   0.001695  -1.079951   0.005208   9.187705
     7  O   -0.039805   0.031505  -0.000515  -0.587620  -0.003555   0.461859
     8  C   -2.892772   0.194553  -0.042352  -2.394671   0.046252   1.128133
     9  H    0.049843  -0.024446   0.000013   0.021095  -0.000108  -0.058262
    10  C   -2.654208  -9.507314   0.110737  -1.699039  -0.047381  -0.549666
    11  H    0.085854   0.063077  -0.000121  -0.022238   0.000011  -0.002664
    12  S   -0.172160  -0.429682   0.008369   0.055251  -0.000118  -0.384572
    13  O   -0.003818   0.162702   0.001205   0.124202   0.000019  -0.034781
    14  O    0.002999  -0.365094  -0.000612  -0.055047   0.000082  -0.025061
    15  N   -0.695455   0.399337  -0.000054   0.180071  -0.000011   0.103052
    16  H    0.050504   0.057442   0.000038  -0.002167  -0.000000  -0.005545
    17  H    0.055012  -0.116798  -0.000045  -0.016435   0.000000  -0.003557
    18  C   -0.081458   0.048127   0.000044  -0.063333   0.001219  -0.094946
    19  H    0.001301  -0.002254  -0.000000   0.025530  -0.000008   0.048139
    20  H   -0.002724   0.007302   0.000000  -0.015106   0.000005  -0.066417
    21  H   -0.001785   0.001575   0.000000  -0.017075   0.000006  -0.086450
               7          8          9         10         11         12
     1  C   -0.039805  -2.892772   0.049843  -2.654208   0.085854  -0.172160
     2  C    0.031505   0.194553  -0.024446  -9.507314   0.063077  -0.429682
     3  H   -0.000515  -0.042352   0.000013   0.110737  -0.000121   0.008369
     4  C   -0.587620  -2.394671   0.021095  -1.699039  -0.022238   0.055251
     5  H   -0.003555   0.046252  -0.000108  -0.047381   0.000011  -0.000118
     6  C    0.461859   1.128133  -0.058262  -0.549666  -0.002664  -0.384572
     7  O    8.431582   0.151688  -0.010441  -0.025744  -0.000426  -0.000274
     8  C    0.151688  21.629209   0.198060 -12.224096   0.057009  -1.347523
     9  H   -0.010441   0.198060   0.489487   0.131615  -0.003893   0.002653
    10  C   -0.025744 -12.224096   0.131615  32.770999   0.134346   1.056742
    11  H   -0.000426   0.057009  -0.003893   0.134346   0.436900  -0.012132
    12  S   -0.000274  -1.347523   0.002653   1.056742  -0.012132  15.923650
    13  O   -0.000016  -0.069534   0.000231  -0.368894   0.000009   0.312211
    14  O    0.000065   0.143953   0.000024   0.128502   0.000941   0.331762
    15  N   -0.000142   0.460821   0.000008  -0.107738   0.001641  -0.950046
    16  H    0.000001  -0.036895   0.000000  -0.112290  -0.000024   0.093020
    17  H    0.000001  -0.007432   0.000000   0.060361  -0.000001   0.075745
    18  C    0.098725   0.239499  -0.007802  -0.283925   0.001540  -0.024844
    19  H   -0.061680  -0.040879   0.000200  -0.010649  -0.000000   0.000013
    20  H   -0.030666   0.027357  -0.001436   0.036371   0.000003  -0.000046
    21  H   -0.029361   0.046183  -0.001214   0.039467   0.000002  -0.000040
              13         14         15         16         17         18
     1  C   -0.003818   0.002999  -0.695455   0.050504   0.055012  -0.081458
     2  C    0.162702  -0.365094   0.399337   0.057442  -0.116798   0.048127
     3  H    0.001205  -0.000612  -0.000054   0.000038  -0.000045   0.000044
     4  C    0.124202  -0.055047   0.180071  -0.002167  -0.016435  -0.063333
     5  H    0.000019   0.000082  -0.000011  -0.000000   0.000000   0.001219
     6  C   -0.034781  -0.025061   0.103052  -0.005545  -0.003557  -0.094946
     7  O   -0.000016   0.000065  -0.000142   0.000001   0.000001   0.098725
     8  C   -0.069534   0.143953   0.460821  -0.036895  -0.007432   0.239499
     9  H    0.000231   0.000024   0.000008   0.000000   0.000000  -0.007802
    10  C   -0.368894   0.128502  -0.107738  -0.112290   0.060361  -0.283925
    11  H    0.000009   0.000941   0.001641  -0.000024  -0.000001   0.001540
    12  S    0.312211   0.331762  -0.950046   0.093020   0.075745  -0.024844
    13  O    8.739049  -0.173775  -0.131851  -0.007016   0.010386  -0.000996
    14  O   -0.173775   8.694743  -0.147031   0.009740  -0.006051  -0.000098
    15  N   -0.131851  -0.147031   8.392283   0.212303   0.207269   0.002107
    16  H   -0.007016   0.009740   0.212303   0.322544  -0.022770  -0.000084
    17  H    0.010386  -0.006051   0.207269  -0.022770   0.325294  -0.000021
    18  C   -0.000996  -0.000098   0.002107  -0.000084  -0.000021   5.309619
    19  H    0.000000   0.000000   0.000000   0.000000   0.000000   0.395294
    20  H   -0.000000  -0.000000   0.000002   0.000000   0.000000   0.388593
    21  H    0.000000  -0.000000  -0.000001  -0.000000  -0.000000   0.392597
              19         20         21
     1  C    0.001301  -0.002724  -0.001785
     2  C   -0.002254   0.007302   0.001575
     3  H   -0.000000   0.000000   0.000000
     4  C    0.025530  -0.015106  -0.017075
     5  H   -0.000008   0.000005   0.000006
     6  C    0.048139  -0.066417  -0.086450
     7  O   -0.061680  -0.030666  -0.029361
     8  C   -0.040879   0.027357   0.046183
     9  H    0.000200  -0.001436  -0.001214
    10  C   -0.010649   0.036371   0.039467
    11  H   -0.000000   0.000003   0.000002
    12  S    0.000013  -0.000046  -0.000040
    13  O    0.000000  -0.000000   0.000000
    14  O    0.000000  -0.000000  -0.000000
    15  N    0.000000   0.000002  -0.000001
    16  H    0.000000   0.000000  -0.000000
    17  H    0.000000   0.000000  -0.000000
    18  C    0.395294   0.388593   0.392597
    19  H    0.465969  -0.024923  -0.024587
    20  H   -0.024923   0.510200  -0.043056
    21  H   -0.024587  -0.043056   0.505661
 Mulliken charges:
               1
     1  C   -0.886144
     2  C    0.005779
     3  H    0.253082
     4  C   -0.212206
     5  H    0.233352
     6  C    0.003921
     7  O   -0.385181
     8  C    0.733436
     9  H    0.214373
    10  C   -0.878194
    11  H    0.260165
    12  S    1.462021
    13  O   -0.559333
    14  O   -0.540044
    15  N   -0.926565
    16  H    0.441199
    17  H    0.439041
    18  C   -0.319855
    19  H    0.228535
    20  H    0.214541
    21  H    0.218077
 Sum of Mulliken charges =  -0.00000
 Mulliken charges with hydrogens summed into heavy atoms:
               1
     1  C   -0.886144
     2  C    0.258860
     4  C    0.021146
     6  C    0.003921
     7  O   -0.385181
     8  C    0.947809
    10  C   -0.618029
    12  S    1.462021
    13  O   -0.559333
    14  O   -0.540044
    15  N   -0.046325
    18  C    0.341297
 Electronic spatial extent (au):  <R**2>=           2854.8266
 Charge=             -0.0000 electrons
 Dipole moment (field-independent basis, Debye):
    X=             -6.3458    Y=             -0.4428    Z=              4.0390  Tot=              7.5351
 Quadrupole moment (field-independent basis, Debye-Ang):
   XX=            -83.9949   YY=            -75.2815   ZZ=            -76.7516
   XY=              8.0884   XZ=             10.0920   YZ=              0.4533
 Traceless Quadrupole moment (field-independent basis, Debye-Ang):
   XX=             -5.3189   YY=              3.3945   ZZ=              1.9244
   XY=              8.0884   XZ=             10.0920   YZ=              0.4533
 Octapole moment (field-independent basis, Debye-Ang**2):
  XXX=           -116.1978  YYY=              7.9903  ZZZ=             13.3394  XYY=            -12.8969
  XXY=            -20.0837  XXZ=             21.6116  XZZ=             12.5589  YZZ=             -2.0136
  YYZ=              8.0413  XYZ=              2.5456
 Hexadecapole moment (field-independent basis, Debye-Ang**3):
 XXXX=          -2851.5841 YYYY=           -465.1437 ZZZZ=           -198.7463 XXXY=            102.8755
 XXXZ=             28.0309 YYYX=              6.2907 YYYZ=              0.1510 ZZZX=             28.6117
 ZZZY=             -0.1231 XXYY=           -599.8766 XXZZ=           -528.9998 YYZZ=           -120.5591
 XXYZ=              7.7097 YYXZ=             22.0856 ZZXY=              0.4071
 N-N= 8.254708194078D+02 E-N=-3.883282597502D+03  KE= 9.443676346891D+02
 Calling FoFJK, ICntrl=      2127 FMM=F ISym2X=0 I1Cent= 0 IOpClX= 0 NMat=1 NMatS=1 NMatT=0.
 ***** Axes restored to original set *****
 -------------------------------------------------------------------
 Center     Atomic                   Forces (Hartrees/Bohr)
 Number     Number              X              Y              Z
 -------------------------------------------------------------------
      1        6           0.000193958   -0.003621032   -0.001521054
      2        6           0.001887095   -0.000315926   -0.002213447
      3        1           0.000810867    0.001073813    0.001552082
      4        6          -0.000221259   -0.000184261   -0.000033084
      5        1           0.000981639    0.000177107   -0.000860752
      6        6           0.000754721    0.000766683   -0.004473341
      7        8           0.004991693   -0.000254536   -0.000605964
      8        6          -0.001673823   -0.000005749   -0.000205693
      9        1          -0.000260944    0.000156029   -0.000070065
     10        6          -0.001184435   -0.000295679   -0.000537235
     11        1          -0.000906019    0.000694654    0.002062343
     12       16           0.003515293    0.029385728    0.026172831
     13        8          -0.007248430   -0.007560251   -0.010554923
     14        8           0.005560518   -0.010085757   -0.010145080
     15        7          -0.001914905   -0.012535754   -0.007773262
     16        1          -0.001277426    0.001535358    0.002864412
     17        1           0.001887367    0.001158151    0.002903619
     18        6          -0.007242023    0.000051630    0.003444626
     19        1          -0.000048388   -0.000015251    0.000225996
     20        1           0.000723157   -0.000554881   -0.000166334
     21        1           0.000671346    0.000429923   -0.000065673
 -------------------------------------------------------------------
 Cartesian Forces:  Max     0.029385728 RMS     0.006194021

 GradGradGradGradGradGradGradGradGradGradGradGradGradGradGradGradGradGrad
 Berny optimization.
 FormGI is forming the generalized inverse of G from B-inverse, IUseBI=4.
 Internal  Forces:  Max     0.012845235 RMS     0.002832588
 Search for a local minimum.
 Step number   1 out of a maximum of  106
 All quantities printed in internal units (Hartrees-Bohrs-Radians)
 Mixed Optimization -- RFO/linear search
 Second derivative matrix not updated -- first step.
 ITU=  0
     Eigenvalues ---    0.00792   0.01335   0.01629   0.01889   0.02076
     Eigenvalues ---    0.02116   0.02138   0.02153   0.02183   0.02188
     Eigenvalues ---    0.02198   0.02231   0.02280   0.04636   0.09393
     Eigenvalues ---    0.10158   0.10359   0.10698   0.14444   0.15999
     Eigenvalues ---    0.15999   0.16000   0.16000   0.16000   0.16000
     Eigenvalues ---    0.16000   0.16000   0.16000   0.19904   0.22000
     Eigenvalues ---    0.22983   0.23995   0.24982   0.25000   0.25000
     Eigenvalues ---    0.25000   0.28796   0.34324   0.34329   0.34909
     Eigenvalues ---    0.35269   0.35336   0.35350   0.35586   0.41423
     Eigenvalues ---    0.41838   0.41870   0.42440   0.43965   0.43998
     Eigenvalues ---    0.45743   0.45769   0.46856   0.47996   0.53859
     Eigenvalues ---    0.89678   0.89924
 RFO step:  Lambda=-3.30978892D-03 EMin= 7.91777784D-03
 Linear search not attempted -- first point.
 Iteration  1 RMS(Cart)=  0.01928851 RMS(Int)=  0.00042598
 Iteration  2 RMS(Cart)=  0.00076099 RMS(Int)=  0.00018567
 Iteration  3 RMS(Cart)=  0.00000030 RMS(Int)=  0.00018567
 Variable       Old X    -DE/DX   Delta X   Delta X   Delta X     New X
                                 (Linear)    (Quad)   (Total)
    R1        2.64373  -0.00088   0.00000  -0.00206  -0.00205   2.64168
    R2        2.62793  -0.00239   0.00000  -0.00515  -0.00514   2.62280
    R3        3.34130   0.00317   0.00000   0.01089   0.01089   3.35218
    R4        2.05240   0.00001   0.00000   0.00002   0.00002   2.05242
    R5        2.61396   0.00100   0.00000   0.00202   0.00203   2.61598
    R6        2.05111  -0.00034   0.00000  -0.00094  -0.00094   2.05017
    R7        2.65367  -0.00111   0.00000  -0.00233  -0.00234   2.65134
    R8        2.56160  -0.00283   0.00000  -0.00522  -0.00522   2.55638
    R9        2.64414  -0.00020   0.00000  -0.00029  -0.00030   2.64383
   R10        2.69664  -0.00681   0.00000  -0.01631  -0.01631   2.68033
   R11        2.04734  -0.00020   0.00000  -0.00055  -0.00055   2.04679
   R12        2.63258   0.00179   0.00000   0.00383   0.00382   2.63640
   R13        2.05134   0.00026   0.00000   0.00072   0.00072   2.05206
   R14        2.76668  -0.01215   0.00000  -0.01346  -0.01346   2.75322
   R15        2.76782  -0.01285   0.00000  -0.01427  -0.01427   2.75355
   R16        3.12788   0.00932   0.00000   0.02207   0.02207   3.14996
   R17        1.93157  -0.00284   0.00000  -0.00641  -0.00641   1.92516
   R18        1.93197  -0.00306   0.00000  -0.00692  -0.00692   1.92505
   R19        2.05824  -0.00021   0.00000  -0.00060  -0.00060   2.05764
   R20        2.06778   0.00082   0.00000   0.00236   0.00236   2.07014
   R21        2.06786   0.00069   0.00000   0.00200   0.00200   2.06986
    A1        2.11849  -0.00140   0.00000  -0.00600  -0.00604   2.11245
    A2        2.07688   0.00176   0.00000   0.00756   0.00745   2.08433
    A3        2.08716  -0.00034   0.00000  -0.00072  -0.00083   2.08632
    A4        2.10803  -0.00237   0.00000  -0.01304  -0.01313   2.09490
    A5        2.07800   0.00140   0.00000   0.00558   0.00556   2.08356
    A6        2.09714   0.00096   0.00000   0.00732   0.00723   2.10437
    A7        2.11031   0.00124   0.00000   0.00774   0.00771   2.11802
    A8        2.09540   0.00012   0.00000   0.00044   0.00045   2.09585
    A9        2.07745  -0.00137   0.00000  -0.00824  -0.00827   2.06918
   A10        2.01865  -0.00100   0.00000  -0.00406  -0.00407   2.01459
   A11        2.10372  -0.00144   0.00000  -0.00543  -0.00544   2.09828
   A12        2.16081   0.00243   0.00000   0.00948   0.00947   2.17029
   A13        2.05734   0.00093   0.00000   0.00369   0.00369   2.06102
   A14        2.11872  -0.00055   0.00000  -0.00283  -0.00285   2.11587
   A15        2.08276   0.00070   0.00000   0.00322   0.00321   2.08597
   A16        2.08170  -0.00015   0.00000  -0.00040  -0.00041   2.08128
   A17        2.08796   0.00062   0.00000   0.00228   0.00227   2.09023
   A18        2.10508  -0.00255   0.00000  -0.01494  -0.01498   2.09009
   A19        2.09010   0.00193   0.00000   0.01252   0.01247   2.10258
   A20        1.88970  -0.00241   0.00000  -0.01762  -0.01817   1.87153
   A21        1.88816  -0.00182   0.00000  -0.01312  -0.01357   1.87458
   A22        1.90569  -0.00458   0.00000  -0.03834  -0.03909   1.86660
   A23        2.08362   0.00777   0.00000   0.07192   0.07202   2.15564
   A24        1.84807   0.00010   0.00000  -0.00630  -0.00712   1.84095
   A25        1.84285   0.00005   0.00000  -0.00483  -0.00550   1.83735
   A26        1.94471   0.00102   0.00000   0.01400   0.01372   1.95843
   A27        1.94444   0.00088   0.00000   0.01315   0.01287   1.95731
   A28        1.92404   0.00055   0.00000   0.01717   0.01670   1.94074
   A29        1.84458  -0.00039   0.00000  -0.00275  -0.00275   1.84184
   A30        1.93058   0.00062   0.00000   0.00403   0.00403   1.93461
   A31        1.93056   0.00055   0.00000   0.00351   0.00350   1.93407
   A32        1.91710  -0.00020   0.00000  -0.00154  -0.00154   1.91555
   A33        1.91724  -0.00020   0.00000  -0.00160  -0.00160   1.91564
   A34        1.92240  -0.00038   0.00000  -0.00171  -0.00172   1.92068
    D1       -3.14031   0.00081   0.00000   0.03471   0.03460  -3.10571
    D2       -0.00609   0.00028   0.00000   0.01329   0.01332   0.00723
    D3        0.04050   0.00033   0.00000   0.00992   0.00983   0.05033
    D4       -3.10846  -0.00021   0.00000  -0.01151  -0.01145  -3.11991
    D5        0.00933  -0.00025   0.00000  -0.01219  -0.01219  -0.00286
    D6        3.14078  -0.00064   0.00000  -0.02760  -0.02745   3.11333
    D7        3.11147   0.00028   0.00000   0.01292   0.01279   3.12426
    D8       -0.04026  -0.00011   0.00000  -0.00248  -0.00247  -0.04273
    D9       -2.84264  -0.00308   0.00000  -0.00795  -0.00758  -2.85023
   D10       -0.56124   0.00378   0.00000   0.06163   0.06137  -0.49986
   D11        1.43616   0.00050   0.00000   0.02906   0.02903   1.46519
   D12        0.33745  -0.00353   0.00000  -0.03217  -0.03185   0.30560
   D13        2.61886   0.00333   0.00000   0.03742   0.03711   2.65597
   D14       -1.66693   0.00005   0.00000   0.00485   0.00476  -1.66217
   D15       -3.13496   0.00015   0.00000   0.00552   0.00557  -3.12939
   D16        0.00017  -0.00012   0.00000  -0.00550  -0.00553  -0.00535
   D17       -0.00069  -0.00040   0.00000  -0.01586  -0.01592  -0.01661
   D18        3.13445  -0.00067   0.00000  -0.02688  -0.02702   3.10743
   D19       -3.13689   0.00007   0.00000   0.00293   0.00289  -3.13399
   D20        0.00243  -0.00006   0.00000  -0.00317  -0.00320  -0.00077
   D21       -0.00163  -0.00018   0.00000  -0.00783  -0.00783  -0.00947
   D22        3.13768  -0.00031   0.00000  -0.01392  -0.01393   3.12376
   D23        3.13703  -0.00014   0.00000  -0.00590  -0.00592   3.13110
   D24       -0.00221   0.00000   0.00000   0.00044   0.00047  -0.00173
   D25       -3.13739   0.00028   0.00000   0.01188   0.01193  -3.12545
   D26        0.00079   0.00009   0.00000   0.00431   0.00436   0.00514
   D27        0.00173   0.00013   0.00000   0.00525   0.00525   0.00698
   D28        3.13991  -0.00006   0.00000  -0.00232  -0.00233   3.13758
   D29       -3.14002   0.00002   0.00000   0.00030   0.00030  -3.13971
   D30        1.06908   0.00015   0.00000   0.00162   0.00163   1.07071
   D31       -1.06577  -0.00016   0.00000  -0.00136  -0.00137  -1.06714
   D32       -0.00656   0.00006   0.00000   0.00323   0.00323  -0.00333
   D33       -3.13809   0.00047   0.00000   0.01866   0.01876  -3.11933
   D34        3.13169  -0.00013   0.00000  -0.00418  -0.00420   3.12749
   D35        0.00016   0.00029   0.00000   0.01125   0.01133   0.01148
   D36        1.06216   0.00082   0.00000   0.01950   0.01964   1.08180
   D37       -1.09459  -0.00127   0.00000  -0.02266  -0.02275  -1.11734
   D38       -0.96891   0.00583   0.00000   0.06218   0.06215  -0.90677
   D39       -3.12566   0.00373   0.00000   0.02003   0.01976  -3.10591
   D40        3.08868  -0.00347   0.00000  -0.01675  -0.01650   3.07218
   D41        0.93193  -0.00557   0.00000  -0.05890  -0.05889   0.87304
         Item               Value     Threshold  Converged?
 Maximum Force            0.012845     0.000450     NO 
 RMS     Force            0.002833     0.000300     NO 
 Maximum Displacement     0.073571     0.001800     NO 
 RMS     Displacement     0.019437     0.001200     NO 
 Predicted change in Energy=-1.693610D-03
 GradGradGradGradGradGradGradGradGradGradGradGradGradGradGradGradGradGrad

                          Input orientation:                          
 ---------------------------------------------------------------------
 Center     Atomic      Atomic             Coordinates (Angstroms)
 Number     Number       Type             X           Y           Z
 ---------------------------------------------------------------------
      1          6           0       -1.288644    0.769065   -0.905371
      2          6           0       -2.474569    0.904327   -1.633009
      3          1           0       -3.429251    0.932890   -1.115932
      4          6           0       -2.415385    1.035231   -3.009854
      5          1           0       -3.314849    1.153392   -3.604845
      6          6           0       -1.173829    1.038022   -3.663318
      7          8           0       -1.225296    1.180512   -5.007587
      8          6           0        0.009373    0.909628   -2.927854
      9          1           0        0.977169    0.924589   -3.413941
     10          6           0       -0.054809    0.772644   -1.540958
     11          1           0        0.854560    0.692623   -0.952886
     12         16           0       -1.364743    0.567970    0.855450
     13          8           0       -0.035791    0.852910    1.380213
     14          8           0       -2.573152    1.237474    1.318801
     15          7           0       -1.620779   -1.052799    1.148813
     16          1           0       -0.858048   -1.632150    0.801753
     17          1           0       -2.518697   -1.371176    0.788093
     18          6           0       -0.001371    1.203991   -5.723991
     19          1           0       -0.278103    1.326762   -6.769913
     20          1           0        0.544808    0.263404   -5.593475
     21          1           0        0.620702    2.046886   -5.404167
 ---------------------------------------------------------------------
                    Distance matrix (angstroms):
                    1          2          3          4          5
     1  C    0.000000
     2  C    1.397917   0.000000
     3  H    2.157167   1.086095   0.000000
     4  C    2.401924   1.384319   2.150660   0.000000
     5  H    3.397113   2.157832   2.501279   1.084902   0.000000
     6  C    2.773408   2.414944   3.403991   1.403027   2.144923
     7  O    4.123285   3.608980   4.479253   2.329883   2.516873
     8  C    2.407291   2.801182   3.886867   2.429393   3.401204
     9  H    3.383936   3.884151   4.969653   3.418326   4.302350
    10  C    1.387924   2.425088   3.404877   2.792656   3.877172
    11  H    2.145093   3.404480   4.293640   3.878277   4.962778
    12  S    1.773900   2.745411   2.877796   4.032711   4.903047
    13  O    2.607789   3.876828   4.213396   4.996839   5.974389
    14  O    2.610805   2.972186   2.598769   4.336248   4.979907
    15  N    2.765714   3.506827   3.513204   4.720782   5.507670
    16  H    2.977502   3.869745   4.107071   4.905973   5.763092
    17  H    2.993573   3.322890   3.124602   4.497318   5.128861
    18  C    5.006529   4.789847   5.749614   3.636273   3.933506
    19  H    5.977046   5.602740   6.484779   4.334859   4.389708
    20  H    5.059206   5.021226   6.024097   4.004193   4.432119
    21  H    5.051494   5.010766   6.002671   3.996749   4.418648
                    6          7          8          9         10
     6  C    0.000000
     7  O    1.352779   0.000000
     8  C    1.399056   2.433736   0.000000
     9  H    2.168375   2.730578   1.083113   0.000000
    10  C    2.413927   3.681564   1.395123   2.143859   0.000000
    11  H    3.402955   4.583059   2.159151   2.475002   1.085902
    12  S    4.547160   5.896597   4.039594   4.882564   2.738720
    13  O    5.173645   6.505861   4.308678   4.900525   2.922335
    14  O    5.178744   6.468627   4.981064   5.924654   3.838793
    15  N    5.265729   6.560895   4.809130   5.610537   3.608237
    16  H    5.212139   6.464856   4.595980   5.260895   3.452031
    17  H    5.237172   6.463273   5.039987   5.928635   4.011382
    18  C    2.376673   1.418371   2.811609   2.524270   4.205554
    19  H    3.246017   2.006080   3.875314   3.605551   5.262973
    20  H    2.698009   2.077888   2.794608   2.318291   4.128168
    21  H    2.696053   2.077399   2.792705   2.312492   4.123638
                   11         12         13         14         15
    11  H    0.000000
    12  S    2.865470   0.000000
    13  O    2.502353   1.456941   0.000000
    14  O    4.148087   1.457114   2.567072   0.000000
    15  N    3.686589   1.666887   2.489470   2.486215   0.000000
    16  H    3.378810   2.258352   2.680717   3.382848   1.018752
    17  H    4.320779   2.257529   3.385555   2.662644   1.018695
    18  C    4.874173   6.749248   7.112957   7.497739   7.412896
    19  H    5.960106   7.739684   8.167485   8.408478   8.376832
    20  H    4.670679   6.732591   7.022603   7.645263   7.202820
    21  H    4.658607   6.731418   6.919854   7.486931   7.587742
                   16         17         18         19         20
    16  H    0.000000
    17  H    1.681085   0.000000
    18  C    7.166794   7.441482   0.000000
    19  H    8.149946   8.332022   1.088855   0.000000
    20  H    6.816163   7.265076   1.095468   1.786594   0.000000
    21  H    7.364472   7.738414   1.095324   1.786531   1.795107
                   21
    21  H    0.000000
 Stoichiometry    C7H9NO3S
 Framework group  C1[X(C7H9NO3S)]
 Deg. of freedom    57
 Full point group                 C1      NOp   1
 Largest Abelian subgroup         C1      NOp   1
 Largest concise Abelian subgroup C1      NOp   1
                         Standard orientation:                         
 ---------------------------------------------------------------------
 Center     Atomic      Atomic             Coordinates (Angstroms)
 Number     Number       Type             X           Y           Z
 ---------------------------------------------------------------------
      1          6           0        0.508275    0.049052   -0.097148
      2          6           0       -0.072549    1.320249   -0.067579
      3          1           0        0.554698    2.205648   -0.114813
      4          6           0       -1.450916    1.436000   -0.012380
      5          1           0       -1.935842    2.406408    0.000526
      6          6           0       -2.253109    0.285089    0.006952
      7          8           0       -3.586740    0.507327    0.052223
      8          6           0       -1.665125   -0.983864   -0.030331
      9          1           0       -2.269179   -1.882892   -0.031087
     10          6           0       -0.275450   -1.096302   -0.080617
     11          1           0        0.196494   -2.072994   -0.130841
     12         16           0        2.275428   -0.100955   -0.134399
     13          8           0        2.584348   -1.459778   -0.559661
     14          8           0        2.799928    1.087416   -0.794594
     15          7           0        2.805265    0.002933    1.442621
     16          1           0        2.440685   -0.751675    2.021849
     17          1           0        2.606675    0.912882    1.855286
     18          6           0       -4.451227   -0.617115    0.060632
     19          1           0       -5.460046   -0.208976    0.096867
     20          1           0       -4.271929   -1.240065    0.943716
     21          1           0       -4.324952   -1.211954   -0.850387
 ---------------------------------------------------------------------
 Rotational constants (GHZ):           2.3843540           0.4148654           0.3824142
 Basis read from rwf:  (6D, 7F)
 There are   250 symmetry adapted cartesian basis functions of A   symmetry.
 There are   250 symmetry adapted basis functions of A   symmetry.
   250 basis functions,   444 primitive gaussians,   250 cartesian basis functions
    49 alpha electrons       49 beta electrons
       nuclear repulsion energy       826.2539337962 Hartrees.
 NAtoms=   21 NActive=   21 NUniq=   21 SFac= 1.00D+00 NAtFMM=   60 NAOKFM=F Big=F
 Integral buffers will be    131072 words long.
 Raffenetti 2 integral format.
 Two-electron integral symmetry is turned on.
 One-electron integrals computed using PRISM.
 NBasis=   250 RedAO= T EigKep=  2.00D-06  NBF=   250
 NBsUse=   250 1.00D-06 EigRej= -1.00D+00 NBFU=   250
 Initial guess from the checkpoint file:  "/jobfs/48698387.gadi-pbs/Gau-2134265.chk"
 B after Tr=     0.000000    0.000000   -0.000000
         Rot=    0.999988   -0.004912    0.000294   -0.000188 Ang=  -0.56 deg.
 ExpMin= 4.05D-02 ExpMax= 2.19D+04 ExpMxC= 3.30D+03 IAcc=3 IRadAn=         5 AccDes= 0.00D+00
 Harris functional with IExCor= 1009 and IRadAn=       5 diagonalized for initial guess.
 HarFok:  IExCor= 1009 AccDes= 0.00D+00 IRadAn=         5 IDoV= 1 UseB2=F ITyADJ=14
 ICtDFT=  3500011 ScaDFX=  1.000000  1.000000  1.000000  1.000000
 FoFCou: FMM=F IPFlag=           0 FMFlag=      100000 FMFlg1=           0
         NFxFlg=           0 DoJE=T BraDBF=F KetDBF=T FulRan=T
         wScrn=  0.000000 ICntrl=       500 IOpCl=  0 I1Cent=   200000004 NGrid=           0
         NMat0=    1 NMatS0=      1 NMatT0=    0 NMatD0=    1 NMtDS0=    0 NMtDT0=    0
 Petite list used in FoFCou.
 Requested convergence on RMS density matrix=1.00D-08 within 128 cycles.
 Requested convergence on MAX density matrix=1.00D-06.
 Requested convergence on             energy=1.00D-06.
 No special actions if energy rises.
 SCF Done:  E(RM062X) =  -950.450682866     A.U. after   13 cycles
            NFock= 13  Conv=0.86D-08     -V/T= 2.0064
 Calling FoFJK, ICntrl=      2127 FMM=F ISym2X=0 I1Cent= 0 IOpClX= 0 NMat=1 NMatS=1 NMatT=0.
 ***** Axes restored to original set *****
 -------------------------------------------------------------------
 Center     Atomic                   Forces (Hartrees/Bohr)
 Number     Number              X              Y              Z
 -------------------------------------------------------------------
      1        6          -0.000274012    0.000426490   -0.001208357
      2        6           0.000033681    0.000571992   -0.001388270
      3        1           0.000027381    0.000068696    0.000346205
      4        6          -0.000560669   -0.000154968    0.001487365
      5        1           0.000058799   -0.000012349   -0.000229395
      6        6           0.000244953    0.000171414   -0.000434428
      7        8           0.001840291   -0.000264623   -0.000086133
      8        6          -0.000279884   -0.000193904   -0.000136299
      9        1           0.000227638    0.000013682   -0.000256844
     10        6           0.000196404    0.000251669   -0.001202331
     11        1          -0.000032378    0.000089373    0.000126283
     12       16           0.000307004    0.004019413    0.002571439
     13        8          -0.005462381   -0.000690704   -0.000774714
     14        8           0.005250594   -0.002633369   -0.000737774
     15        7          -0.000564874   -0.003987774   -0.001001052
     16        1          -0.000012242    0.001197984    0.001186544
     17        1           0.000351813    0.001072354    0.001120364
     18        6          -0.002819027    0.000058756    0.001132960
     19        1           0.000531106    0.000018536   -0.000355402
     20        1           0.000458573   -0.000071164   -0.000064288
     21        1           0.000477231    0.000048495   -0.000095875
 -------------------------------------------------------------------
 Cartesian Forces:  Max     0.005462381 RMS     0.001457297

 GradGradGradGradGradGradGradGradGradGradGradGradGradGradGradGradGradGrad
 Berny optimization.
 Using GEDIIS/GDIIS optimizer.
 FormGI is forming the generalized inverse of G from B-inverse, IUseBI=4.
 Internal  Forces:  Max     0.005795306 RMS     0.001002809
 Search for a local minimum.
 Step number   2 out of a maximum of  106
 All quantities printed in internal units (Hartrees-Bohrs-Radians)
 Mixed Optimization -- RFO/linear search
 Update second derivatives using D2CorX and points    1    2
 DE= -1.66D-03 DEPred=-1.69D-03 R= 9.81D-01
 TightC=F SS=  1.41D+00  RLast= 1.77D-01 DXNew= 5.0454D-01 5.2964D-01
 Trust test= 9.81D-01 RLast= 1.77D-01 DXMaxT set to 5.05D-01
 ITU=  1  0
 Use linear search instead of GDIIS.
     Eigenvalues ---    0.00787   0.01335   0.01629   0.01889   0.02073
     Eigenvalues ---    0.02115   0.02138   0.02147   0.02182   0.02193
     Eigenvalues ---    0.02201   0.02240   0.02280   0.04260   0.10094
     Eigenvalues ---    0.10110   0.10700   0.11398   0.14788   0.15759
     Eigenvalues ---    0.15993   0.15997   0.15999   0.16000   0.16000
     Eigenvalues ---    0.16000   0.16000   0.16593   0.19432   0.22017
     Eigenvalues ---    0.22971   0.23913   0.24965   0.24998   0.25000
     Eigenvalues ---    0.25533   0.28515   0.34298   0.34327   0.34913
     Eigenvalues ---    0.35270   0.35335   0.35352   0.35594   0.39835
     Eigenvalues ---    0.41605   0.41880   0.42432   0.43805   0.43984
     Eigenvalues ---    0.45761   0.45831   0.47001   0.48084   0.53767
     Eigenvalues ---    0.83647   0.89811
 RFO step:  Lambda=-2.71578892D-04 EMin= 7.87179800D-03
 Quartic linear search produced a step of  0.00223.
 Iteration  1 RMS(Cart)=  0.01514585 RMS(Int)=  0.00007064
 Iteration  2 RMS(Cart)=  0.00010652 RMS(Int)=  0.00001025
 Iteration  3 RMS(Cart)=  0.00000001 RMS(Int)=  0.00001025
 Variable       Old X    -DE/DX   Delta X   Delta X   Delta X     New X
                                 (Linear)    (Quad)   (Total)
    R1        2.64168   0.00023  -0.00000   0.00038   0.00037   2.64205
    R2        2.62280   0.00072  -0.00001   0.00115   0.00114   2.62394
    R3        3.35218   0.00247   0.00002   0.00942   0.00944   3.36163
    R4        2.05242   0.00014   0.00000   0.00041   0.00041   2.05283
    R5        2.61598  -0.00067   0.00000  -0.00123  -0.00122   2.61476
    R6        2.05017   0.00008  -0.00000   0.00014   0.00014   2.05031
    R7        2.65134   0.00069  -0.00001   0.00132   0.00132   2.65265
    R8        2.55638  -0.00058  -0.00001  -0.00147  -0.00148   2.55490
    R9        2.64383  -0.00063  -0.00000  -0.00142  -0.00142   2.64241
   R10        2.68033  -0.00146  -0.00004  -0.00479  -0.00483   2.67550
   R11        2.04679   0.00032  -0.00000   0.00086   0.00086   2.04764
   R12        2.63640  -0.00032   0.00001  -0.00039  -0.00038   2.63602
   R13        2.05206   0.00003   0.00000   0.00015   0.00016   2.05221
   R14        2.75322  -0.00540  -0.00003  -0.00706  -0.00709   2.74613
   R15        2.75355  -0.00580  -0.00003  -0.00758  -0.00761   2.74594
   R16        3.14996   0.00193   0.00005   0.00633   0.00637   3.15633
   R17        1.92516  -0.00110  -0.00001  -0.00299  -0.00301   1.92215
   R18        1.92505  -0.00104  -0.00002  -0.00290  -0.00291   1.92214
   R19        2.05764   0.00021  -0.00000   0.00055   0.00054   2.05818
   R20        2.07014   0.00029   0.00001   0.00101   0.00102   2.07116
   R21        2.06986   0.00028   0.00000   0.00098   0.00098   2.07085
    A1        2.11245  -0.00042  -0.00001  -0.00206  -0.00209   2.11036
    A2        2.08433   0.00013   0.00002   0.00103   0.00106   2.08538
    A3        2.08632   0.00029  -0.00000   0.00105   0.00105   2.08737
    A4        2.09490  -0.00036  -0.00003  -0.00316  -0.00318   2.09172
    A5        2.08356   0.00009   0.00001   0.00087   0.00087   2.08443
    A6        2.10437   0.00027   0.00002   0.00234   0.00236   2.10673
    A7        2.11802   0.00022   0.00002   0.00205   0.00207   2.12009
    A8        2.09585   0.00003   0.00000   0.00006   0.00006   2.09591
    A9        2.06918  -0.00025  -0.00002  -0.00209  -0.00211   2.06707
   A10        2.01459   0.00071  -0.00001   0.00260   0.00260   2.01718
   A11        2.09828   0.00015  -0.00001   0.00006   0.00005   2.09833
   A12        2.17029  -0.00086   0.00002  -0.00266  -0.00264   2.16765
   A13        2.06102  -0.00030   0.00001  -0.00091  -0.00091   2.06012
   A14        2.11587  -0.00004  -0.00001  -0.00058  -0.00058   2.11529
   A15        2.08597  -0.00017   0.00001  -0.00063  -0.00062   2.08535
   A16        2.08128   0.00021  -0.00000   0.00121   0.00121   2.08249
   A17        2.09023   0.00031   0.00001   0.00165   0.00164   2.09187
   A18        2.09009  -0.00028  -0.00003  -0.00262  -0.00265   2.08744
   A19        2.10258  -0.00003   0.00003   0.00106   0.00109   2.10367
   A20        1.87153   0.00054  -0.00004   0.00363   0.00359   1.87512
   A21        1.87458   0.00038  -0.00003   0.00288   0.00285   1.87744
   A22        1.86660   0.00190  -0.00009   0.00757   0.00748   1.87408
   A23        2.15564  -0.00089   0.00016  -0.00432  -0.00418   2.15146
   A24        1.84095  -0.00078  -0.00002  -0.00410  -0.00414   1.83681
   A25        1.83735  -0.00074  -0.00001  -0.00407  -0.00410   1.83325
   A26        1.95843  -0.00047   0.00003   0.00138   0.00138   1.95981
   A27        1.95731  -0.00041   0.00003   0.00171   0.00171   1.95902
   A28        1.94074   0.00109   0.00004   0.01361   0.01360   1.95434
   A29        1.84184   0.00085  -0.00001   0.00547   0.00545   1.84729
   A30        1.93461   0.00025   0.00001   0.00168   0.00169   1.93630
   A31        1.93407   0.00032   0.00001   0.00206   0.00206   1.93613
   A32        1.91555  -0.00040  -0.00000  -0.00225  -0.00227   1.91329
   A33        1.91564  -0.00043  -0.00000  -0.00242  -0.00243   1.91321
   A34        1.92068  -0.00055  -0.00000  -0.00424  -0.00425   1.91643
    D1       -3.10571   0.00010   0.00008   0.00719   0.00727  -3.09845
    D2        0.00723   0.00019   0.00003   0.00940   0.00942   0.01665
    D3        0.05033   0.00009   0.00002   0.00537   0.00539   0.05572
    D4       -3.11991   0.00018  -0.00003   0.00757   0.00754  -3.11237
    D5       -0.00286  -0.00021  -0.00003  -0.01017  -0.01020  -0.01306
    D6        3.11333  -0.00010  -0.00006  -0.00646  -0.00653   3.10680
    D7        3.12426  -0.00021   0.00003  -0.00834  -0.00832   3.11595
    D8       -0.04273  -0.00010  -0.00001  -0.00464  -0.00464  -0.04738
    D9       -2.85023   0.00038  -0.00002   0.02015   0.02014  -2.83009
   D10       -0.49986  -0.00008   0.00014   0.01946   0.01959  -0.48027
   D11        1.46519   0.00013   0.00006   0.01966   0.01972   1.48491
   D12        0.30560   0.00038  -0.00007   0.01838   0.01832   0.32391
   D13        2.65597  -0.00008   0.00008   0.01768   0.01776   2.67373
   D14       -1.66217   0.00014   0.00001   0.01788   0.01789  -1.64427
   D15       -3.12939  -0.00009   0.00001  -0.00392  -0.00392  -3.13331
   D16       -0.00535  -0.00005  -0.00001  -0.00277  -0.00279  -0.00815
   D17       -0.01661  -0.00001  -0.00004  -0.00180  -0.00184  -0.01845
   D18        3.10743   0.00003  -0.00006  -0.00065  -0.00071   3.10672
   D19       -3.13399  -0.00008   0.00001  -0.00389  -0.00388  -3.13787
   D20       -0.00077  -0.00006  -0.00001  -0.00296  -0.00297  -0.00373
   D21       -0.00947  -0.00004  -0.00002  -0.00273  -0.00275  -0.01222
   D22        3.12376  -0.00001  -0.00003  -0.00180  -0.00183   3.12193
   D23        3.13110  -0.00004  -0.00001  -0.00213  -0.00214   3.12896
   D24       -0.00173  -0.00007   0.00000  -0.00312  -0.00312  -0.00485
   D25       -3.12545   0.00003   0.00003   0.00217   0.00220  -3.12325
   D26        0.00514   0.00004   0.00001   0.00220   0.00221   0.00735
   D27        0.00698   0.00006   0.00001   0.00322   0.00323   0.01022
   D28        3.13758   0.00008  -0.00001   0.00324   0.00324   3.14082
   D29       -3.13971  -0.00002   0.00000  -0.00114  -0.00114  -3.14086
   D30        1.07071  -0.00017   0.00000  -0.00255  -0.00255   1.06816
   D31       -1.06714   0.00014  -0.00000   0.00026   0.00026  -1.06687
   D32       -0.00333   0.00009   0.00001   0.00430   0.00431   0.00098
   D33       -3.11933  -0.00001   0.00004   0.00062   0.00066  -3.11867
   D34        3.12749   0.00010  -0.00001   0.00431   0.00430   3.13179
   D35        0.01148  -0.00000   0.00003   0.00063   0.00065   0.01214
   D36        1.08180   0.00046   0.00004   0.01181   0.01186   1.09366
   D37       -1.11734  -0.00031  -0.00005  -0.00897  -0.00903  -1.12637
   D38       -0.90677  -0.00063   0.00014   0.00625   0.00642  -0.90035
   D39       -3.10591  -0.00140   0.00004  -0.01452  -0.01448  -3.12038
   D40        3.07218   0.00139  -0.00004   0.01650   0.01646   3.08864
   D41        0.87304   0.00061  -0.00013  -0.00427  -0.00443   0.86861
         Item               Value     Threshold  Converged?
 Maximum Force            0.005795     0.000450     NO 
 RMS     Force            0.001003     0.000300     NO 
 Maximum Displacement     0.050585     0.001800     NO 
 RMS     Displacement     0.015125     0.001200     NO 
 Predicted change in Energy=-1.363760D-04
 GradGradGradGradGradGradGradGradGradGradGradGradGradGradGradGradGradGrad

                          Input orientation:                          
 ---------------------------------------------------------------------
 Center     Atomic      Atomic             Coordinates (Angstroms)
 Number     Number       Type             X           Y           Z
 ---------------------------------------------------------------------
      1          6           0       -1.293499    0.774111   -0.909124
      2          6           0       -2.478038    0.921818   -1.636980
      3          1           0       -3.431109    0.958356   -1.116990
      4          6           0       -2.418614    1.051695   -3.013261
      5          1           0       -3.316344    1.175719   -3.609810
      6          6           0       -1.176853    1.044564   -3.667797
      7          8           0       -1.224768    1.181986   -5.011934
      8          6           0        0.005352    0.910849   -2.933110
      9          1           0        0.973116    0.920258   -3.420407
     10          6           0       -0.059785    0.775817   -1.546269
     11          1           0        0.848484    0.692166   -0.956853
     12         16           0       -1.370787    0.562113    0.855404
     13          8           0       -0.051985    0.860251    1.387984
     14          8           0       -2.584349    1.210706    1.322372
     15          7           0       -1.606897   -1.064458    1.152534
     16          1           0       -0.833224   -1.633962    0.818304
     17          1           0       -2.502274   -1.394230    0.800182
     18          6           0       -0.000761    1.197485   -5.723343
     19          1           0       -0.268125    1.316057   -6.772481
     20          1           0        0.543870    0.256286   -5.586396
     21          1           0        0.625884    2.038607   -5.406001
 ---------------------------------------------------------------------
                    Distance matrix (angstroms):
                    1          2          3          4          5
     1  C    0.000000
     2  C    1.398115   0.000000
     3  H    2.155581   1.086310   0.000000
     4  C    2.402151   1.383672   2.151674   0.000000
     5  H    3.398073   2.158537   2.504909   1.084976   0.000000
     6  C    2.774352   2.415029   3.405249   1.403723   2.144292
     7  O    4.123607   3.609527   4.482024   2.331725   2.518072
     8  C    2.408783   2.801303   3.887134   2.429377   3.400257
     9  H    3.386067   3.884724   4.970350   3.418608   4.301233
    10  C    1.388527   2.424354   3.403443   2.791460   3.875991
    11  H    2.144082   3.403096   4.290853   3.877113   4.961633
    12  S    1.778897   2.750885   2.879630   4.037846   4.909159
    13  O    2.612562   3.878135   4.207493   5.000854   5.977751
    14  O    2.614667   2.975319   2.594449   4.341712   4.986327
    15  N    2.780106   3.533492   3.545457   4.742450   5.533581
    16  H    2.999112   3.907153   4.149033   4.940354   5.802447
    17  H    3.014061   3.362206   3.173790   4.531213   5.168692
    18  C    5.002712   4.786570   5.748300   3.634806   3.931996
    19  H    5.976960   5.604686   6.489760   4.338920   4.394749
    20  H    5.051826   5.017245   6.022371   4.003750   4.433227
    21  H    5.050237   5.008700   6.001812   3.996019   4.417244
                    6          7          8          9         10
     6  C    0.000000
     7  O    1.351993   0.000000
     8  C    1.398304   2.430683   0.000000
     9  H    2.167723   2.726198   1.083565   0.000000
    10  C    2.412664   3.678721   1.394921   2.144794   0.000000
    11  H    3.402262   4.580609   2.159696   2.477227   1.085984
    12  S    4.552990   5.901798   4.045765   4.889244   2.744528
    13  O    5.182684   6.514436   4.321770   4.916813   2.935478
    14  O    5.187527   6.478636   4.990551   5.935813   3.845992
    15  N    5.279063   6.572153   4.815981   5.613141   3.614375
    16  H    5.236189   6.486489   4.610030   5.268166   3.463589
    17  H    5.259971   6.484567   5.053618   5.937050   4.022523
    18  C    2.373151   1.415816   2.804924   2.515712   4.198718
    19  H    3.246314   2.008150   3.870368   3.596350   5.258189
    20  H    2.695050   2.077259   2.785387   2.305780   4.117880
    21  H    2.694316   2.077017   2.787847   2.305181   4.118533
                   11         12         13         14         15
    11  H    0.000000
    12  S    2.868163   0.000000
    13  O    2.517411   1.453192   0.000000
    14  O    4.153083   1.453088   2.557341   0.000000
    15  N    3.682953   1.670260   2.485497   2.482062   0.000000
    16  H    3.374937   2.261215   2.675064   3.378263   1.017160
    17  H    4.320626   2.260661   3.381141   2.658028   1.017153
    18  C    4.867853   6.749858   7.119503   7.504479   7.414428
    19  H    5.954627   7.743960   8.176041   8.420370   8.382423
    20  H    4.659984   6.727275   7.025795   7.643805   7.196064
    21  H    4.653748   6.735869   6.928655   7.500802   7.591358
                   16         17         18         19         20
    16  H    0.000000
    17  H    1.686276   0.000000
    18  C    7.176575   7.451908   0.000000
    19  H    8.163452   8.347592   1.089143   0.000000
    20  H    6.818329   7.265781   1.096008   1.785846   0.000000
    21  H    7.372837   7.751545   1.095845   1.785664   1.793304
                   21
    21  H    0.000000
 Stoichiometry    C7H9NO3S
 Framework group  C1[X(C7H9NO3S)]
 Deg. of freedom    57
 Full point group                 C1      NOp   1
 Largest Abelian subgroup         C1      NOp   1
 Largest concise Abelian subgroup C1      NOp   1
                         Standard orientation:                         
 ---------------------------------------------------------------------
 Center     Atomic      Atomic             Coordinates (Angstroms)
 Number     Number       Type             X           Y           Z
 ---------------------------------------------------------------------
      1          6           0        0.504499    0.052218   -0.102606
      2          6           0       -0.077912    1.322925   -0.073904
      3          1           0        0.551147    2.207197   -0.123065
      4          6           0       -1.455503    1.438220   -0.014753
      5          1           0       -1.942637    2.407558    0.001301
      6          6           0       -2.257800    0.286559    0.006106
      7          8           0       -3.590963    0.504860    0.060000
      8          6           0       -1.670193   -0.981548   -0.037230
      9          1           0       -2.274979   -1.880628   -0.038935
     10          6           0       -0.280815   -1.092852   -0.092397
     11          1           0        0.192697   -2.068585   -0.148018
     12         16           0        2.276766   -0.098102   -0.133421
     13          8           0        2.591917   -1.443256   -0.583985
     14          8           0        2.807573    1.098612   -0.763964
     15          7           0        2.810886   -0.028175    1.447590
     16          1           0        2.456872   -0.799073    2.008843
     17          1           0        2.622567    0.873941    1.878082
     18          6           0       -4.449833   -0.620671    0.067497
     19          1           0       -5.462295   -0.221782    0.112667
     20          1           0       -4.262799   -1.250311    0.944882
     21          1           0       -4.327897   -1.212282   -0.846836
 ---------------------------------------------------------------------
 Rotational constants (GHZ):           2.3880031           0.4138203           0.3816155
 Basis read from rwf:  (6D, 7F)
 There are   250 symmetry adapted cartesian basis functions of A   symmetry.
 There are   250 symmetry adapted basis functions of A   symmetry.
   250 basis functions,   444 primitive gaussians,   250 cartesian basis functions
    49 alpha electrons       49 beta electrons
       nuclear repulsion energy       826.0004649724 Hartrees.
 NAtoms=   21 NActive=   21 NUniq=   21 SFac= 1.00D+00 NAtFMM=   60 NAOKFM=F Big=F
 Integral buffers will be    131072 words long.
 Raffenetti 2 integral format.
 Two-electron integral symmetry is turned on.
 One-electron integrals computed using PRISM.
 NBasis=   250 RedAO= T EigKep=  2.01D-06  NBF=   250
 NBsUse=   250 1.00D-06 EigRej= -1.00D+00 NBFU=   250
 Initial guess from the checkpoint file:  "/jobfs/48698387.gadi-pbs/Gau-2134265.chk"
 B after Tr=    -0.000000    0.000000    0.000000
         Rot=    0.999986   -0.005359   -0.000081   -0.000116 Ang=  -0.61 deg.
 ExpMin= 4.05D-02 ExpMax= 2.19D+04 ExpMxC= 3.30D+03 IAcc=3 IRadAn=         5 AccDes= 0.00D+00
 Harris functional with IExCor= 1009 and IRadAn=       5 diagonalized for initial guess.
 HarFok:  IExCor= 1009 AccDes= 0.00D+00 IRadAn=         5 IDoV= 1 UseB2=F ITyADJ=14
 ICtDFT=  3500011 ScaDFX=  1.000000  1.000000  1.000000  1.000000
 FoFCou: FMM=F IPFlag=           0 FMFlag=      100000 FMFlg1=           0
         NFxFlg=           0 DoJE=T BraDBF=F KetDBF=T FulRan=T
         wScrn=  0.000000 ICntrl=       500 IOpCl=  0 I1Cent=   200000004 NGrid=           0
         NMat0=    1 NMatS0=      1 NMatT0=    0 NMatD0=    1 NMtDS0=    0 NMtDT0=    0
 Petite list used in FoFCou.
 Requested convergence on RMS density matrix=1.00D-08 within 128 cycles.
 Requested convergence on MAX density matrix=1.00D-06.
 Requested convergence on             energy=1.00D-06.
 No special actions if energy rises.
 SCF Done:  E(RM062X) =  -950.450828929     A.U. after   13 cycles
            NFock= 13  Conv=0.40D-08     -V/T= 2.0064
 Calling FoFJK, ICntrl=      2127 FMM=F ISym2X=0 I1Cent= 0 IOpClX= 0 NMat=1 NMatS=1 NMatT=0.
 ***** Axes restored to original set *****
 -------------------------------------------------------------------
 Center     Atomic                   Forces (Hartrees/Bohr)
 Number     Number              X              Y              Z
 -------------------------------------------------------------------
      1        6          -0.000053711    0.000390260   -0.000213705
      2        6          -0.000260519    0.000028463   -0.000046770
      3        1          -0.000012113   -0.000101317    0.000031189
      4        6          -0.000029359    0.000099853    0.000265615
[...]
 .00482270,0.00068372,0.00687742,0.00026294,-0.00058444,-0.06353896,0.0
 3177161,0.00008306,0.00239554,-0.00027242,-0.03561062,0.14870579,0.059
 50062,0.00702745,-0.15633958,0.02275089,-0.00565435,0.06516868,-0.0039
 4098,0.00085414,-0.00201137,0.02937294,0.00267278,-0.05055430,0.001395
 49,-0.00025941,-0.00064815,-0.08680327,0.00903128,-0.03107649,0.004023
 72,-0.00010736,0.00535254,0.04838948,0.02689983,-0.34972280,-0.0007717
 6,0.00144072,-0.01010986,0.02860027,-0.05791803,0.70298214,-0.01822798
 ,0.00248921,-0.01496916,-0.00345755,0.00004461,0.00388062,-0.00083232,
 0.00018087,-0.00090548,0.00035511,-0.00016501,0.00077054,-0.00000060,-
 0.00000242,-0.00009282,0.00116531,-0.00002003,0.00169723,0.00032886,-0
 .00006658,0.00020906,0.00691794,-0.00059356,0.00310304,0.00065676,-0.0
 0010162,-0.00022414,-0.26418590,0.02285213,-0.13056770,0.27815748,0.00
 057827,0.00400961,-0.00018791,0.00038922,0.00599011,0.00032916,-0.0000
 0779,0.00037725,0.00001518,-0.00030143,-0.00103207,0.00008327,-0.00005
 012,-0.00067299,-0.00006961,0.00030567,0.00749101,0.00130499,0.0001400
 0,-0.00044640,0.00015753,0.00278293,0.00426733,0.00142164,-0.00028417,
 -0.00426571,-0.00053993,0.02097358,-0.04228356,0.01585614,-0.02412302,
 0.03025400,0.01074507,-0.00150858,0.01244608,0.00349705,0.00024817,-0.
 00146493,0.00077497,-0.00009000,0.00074003,0.00064572,0.00002154,-0.00
 080639,-0.00007521,-0.00006368,0.00002329,0.00185851,0.00095946,-0.004
 58006,-0.00136984,0.00015231,-0.00105979,-0.02511654,0.00279586,-0.010
 89202,0.00011299,-0.00043241,0.00108869,-0.13199110,0.01651779,-0.1423
 3848,0.13986656,-0.01863260,0.14734514,-0.08065347,0.00105378,0.003605
 72,0.01232202,0.00154321,-0.01827437,-0.00374746,0.00007063,-0.0037832
 0,-0.00528306,0.00198529,-0.00568753,0.00033428,0.00003101,-0.00142616
 ,-0.00444780,0.00020108,0.00052160,-0.00036140,0.00005399,-0.00092985,
 -0.00620915,-0.00022596,0.00429558,0.00019365,0.00001559,0.00136604,0.
 00906106,-0.00365743,0.02076537,-0.00404107,0.00017310,0.00388144,1.14
 627557,0.00119266,-0.05957583,0.01110856,-0.00031796,-0.00351111,0.002
 83120,0.00048475,-0.00150066,0.00115644,0.00183239,0.00539784,-0.00082
 976,-0.00003247,0.00082900,-0.00005792,0.00045502,-0.00042274,0.001994
 12,0.00038929,-0.00044583,-0.00282799,0.00004785,0.00625722,-0.0016681
 8,0.00015480,0.00091025,-0.00025577,-0.00202040,-0.00270851,0.00009710
 ,-0.00018213,-0.00206278,0.00048495,-0.06611125,0.58246452,0.00374182,
 0.01725178,-0.16140897,-0.01390190,0.00383792,-0.02421362,0.00192736,-
 0.00006885,0.00080464,-0.00435451,-0.00050846,0.00811081,0.00032608,0.
 00006877,0.00101019,-0.00131224,0.00141521,-0.01335210,-0.00209380,-0.
 00146507,0.01615091,0.00320636,-0.00093487,0.00921570,-0.00045354,0.00
 011994,0.00119092,0.01722678,0.00133621,-0.02218552,-0.00217870,0.0001
 6122,0.00097825,0.02769476,0.07969419,0.55636929,-0.00625510,-0.004568
 83,0.00157484,0.00203536,-0.00026995,-0.00397738,0.00078420,-0.0003200
 6,0.00082259,-0.00001064,0.00032819,-0.00033723,0.00007759,0.00011521,
 -0.00041178,0.00010322,-0.00032032,0.00220861,0.00081310,0.00016003,-0
 .00224615,0.00211793,0.00055769,-0.00139740,0.00003060,0.00005759,-0.0
 0048871,-0.00502873,0.00053679,0.00143072,0.00223868,-0.00073631,-0.00
 135689,-0.50540275,-0.10103852,-0.17040854,0.53358044,-0.00148233,0.00
 913399,0.00336707,0.00018797,0.00196330,-0.00167890,0.00008922,0.00006
 080,-0.00018341,-0.00079132,-0.00069364,0.00060357,-0.00000480,-0.0002
 5389,-0.00008171,0.00046312,-0.00000143,-0.00024269,-0.00002837,0.0000
 3516,0.00031151,0.00004946,-0.00007957,-0.00018531,-0.00001312,-0.0000
 6996,-0.00002025,-0.00001402,0.00057130,0.00076366,-0.00000907,-0.0007
 4716,-0.00001250,-0.10497032,-0.11041795,-0.04387858,0.12974589,0.0982
 6460,-0.03161195,-0.00733447,-0.00611552,0.00594428,-0.00148999,-0.005
 49390,-0.00032014,-0.00035579,0.00000680,-0.00163428,0.00129994,-0.002
 17618,0.00015146,0.00023822,-0.00081959,-0.00069224,-0.00039337,0.0030
 1260,0.00067221,0.00032924,-0.00386611,-0.00112902,0.00065404,-0.00071
 980,0.00012437,-0.00000430,-0.00021693,-0.00077455,-0.00059130,-0.0009
 1767,-0.00129095,-0.00013074,-0.00160378,-0.18296823,-0.04765237,-0.16
 432917,0.19986468,0.05203514,0.15322012,-0.00598833,0.00837402,-0.0010
 0268,-0.00478127,0.00022707,-0.00119668,0.00203080,0.00039185,0.001495
 92,0.00178809,-0.00094457,0.00137157,-0.00004171,-0.00005736,0.0004598
 7,-0.00044723,0.00037665,-0.00227712,0.00018258,-0.00021798,0.00245160
 ,0.00007504,-0.00066529,0.00073390,-0.00000806,-0.00018236,0.00043647,
 0.00209493,0.00035556,0.00389805,0.00083301,0.00035557,-0.00078736,-0.
 46177526,0.18326385,0.13684072,-0.01400702,0.01737374,0.01470127,0.478
 93741,0.00439500,0.00736649,0.00399219,0.00089931,0.00065386,0.0010371
 4,-0.00043534,-0.00078489,-0.00028158,-0.00030268,0.00001949,-0.000512
 68,0.00001027,-0.00004869,-0.00011086,-0.00050331,-0.00008582,0.000172
 38,-0.00002672,0.00011303,-0.00018303,0.00069527,-0.00074789,0.0005834
 3,-0.00001966,-0.00018879,-0.00018586,-0.00016638,0.00170464,-0.002843
 48,-0.00022314,0.00007789,-0.00004325,0.18655046,-0.17602254,-0.068988
 68,-0.01070795,0.01558719,-0.00155472,-0.21860853,0.17758740,0.0292426
 1,-0.01345089,-0.00404328,0.00041493,-0.00074666,-0.00071228,0.0012776
 0,-0.00031169,-0.00122603,0.00130109,0.00043915,-0.00041739,-0.0000848
 2,0.00000014,-0.00019241,0.00104180,-0.00048786,0.00295340,0.00056109,
 0.00030134,-0.00367240,0.00178922,0.00126602,-0.00214498,0.00001849,0.
 00029651,-0.00080651,-0.00547085,-0.00088421,-0.00543063,0.00029887,-0
 .00049465,-0.00007580,0.14821275,-0.07576634,-0.14412897,-0.01674789,0
 .00280141,0.01866199,-0.16160893,0.08157105,0.12935888,0.01098434,-0.0
 0291490,0.00062097,-0.00157664,-0.00047707,0.00081067,0.00019313,-0.00
 019043,0.00030934,0.00017121,-0.00000508,0.00125512,-0.00003602,0.0000
 7876,0.00019844,0.00096118,0.00001952,-0.00043800,-0.00005251,-0.00007
 040,0.00058365,0.00048064,0.00033002,-0.00068424,-0.00004299,-0.000057
 54,-0.00010743,-0.00072118,0.00026286,-0.00073573,0.00022985,-0.000135
 63,-0.00040319,-0.10247384,-0.01354398,0.00319368,-0.01123429,-0.04121
 104,-0.00003476,-0.00101099,0.04035767,-0.00011617,0.75225429,-0.00255
 439,-0.00670223,0.00095466,-0.00203631,-0.00088455,0.00082070,-0.00013
 356,-0.00070850,-0.00047879,-0.00033382,0.00095372,0.00146089,0.000038
 55,-0.00002178,0.00031992,-0.00042064,0.00019068,-0.00280830,-0.000475
 73,-0.00037568,0.00358749,0.00035841,0.00113045,0.00191504,-0.00007994
 ,0.00002132,0.00037406,0.00220691,-0.00156814,0.00118153,0.00008399,-0
 .00080225,-0.00041904,-0.01412745,-0.21675338,0.03819754,-0.00674951,-
 0.00897167,0.00299938,0.00472447,-0.01984345,0.00321458,-0.02856652,0.
 53081948,0.00386434,0.02306159,-0.00305506,0.00339888,0.00102599,0.001
 09231,-0.00016569,0.00048361,-0.00031320,0.00102513,-0.00115564,-0.001
 45264,-0.00005813,-0.00009514,-0.00023272,0.00065932,-0.00052891,0.003
 69799,0.00058862,0.00055744,-0.00465853,-0.00120544,-0.00132796,-0.002
 25681,0.00007314,-0.00015945,-0.00029891,-0.00379299,0.00200756,0.0011
 0613,0.00025426,0.00064928,-0.00034029,-0.00051194,0.00575828,-0.05766
 358,-0.00788743,-0.01421120,0.00898515,0.00382522,-0.01312399,0.009484
 66,0.02862902,0.11777043,0.16343134,-0.00030322,-0.00105932,0.00015753
 ,-0.00045221,-0.00009949,-0.00014272,-0.00002638,-0.00004827,-0.000013
 80,-0.00016852,0.00009692,0.00016088,-0.00000008,0.00001406,0.00002891
 ,0.00008443,-0.00006072,-0.00035697,-0.00011551,-0.00004845,0.00046977
 ,-0.00007359,0.00007982,0.00008317,-0.00001015,-0.00000826,0.00006149,
 0.00067251,-0.00008829,0.00015295,-0.00013283,-0.00016373,0.00000275,0
 .00707327,0.00104108,-0.00076013,-0.00204669,-0.00069317,-0.00059378,0
 .00290807,-0.00372061,-0.00033735,-0.29961071,0.15454638,0.08762262,0.
 30923041,-0.00177751,0.00095058,-0.00028082,0.00045484,0.00036295,0.00
 024610,-0.00002993,-0.00004811,-0.00007167,0.00016971,-0.00008654,-0.0
 0046065,-0.00000347,-0.00001638,-0.00004139,-0.00022812,-0.00008017,0.
 00055948,0.00010987,0.00006812,-0.00075643,-0.00028031,-0.00013204,0.0
 0003320,0.00002766,0.00001292,0.00000677,-0.00002834,0.00017283,0.0005
 4921,-0.00020776,-0.00015230,0.00012304,0.02976773,-0.01511807,-0.0123
 5720,-0.00288309,0.00335888,0.00172792,0.00138429,-0.00774032,0.000542
 84,0.15720060,-0.16874738,-0.06847752,-0.16975636,0.17618458,0.0009125
 5,-0.00064786,-0.00021400,-0.00040867,0.00000860,-0.00025477,-0.000000
 63,-0.00006110,0.00009635,-0.00017357,-0.00001295,0.00029397,0.0000014
 1,0.00002270,0.00001431,0.00017058,0.00016822,-0.00052799,-0.00010656,
 -0.00008144,0.00061963,0.00023618,-0.00008013,-0.00019366,-0.00000757,
 0.00000521,-0.00001944,0.00011261,0.00001626,-0.00038038,0.00018385,0.
 00017756,0.00013873,-0.00308206,0.01337480,-0.00193461,-0.00203526,-0.
 00022005,-0.00203995,-0.00087499,0.00111290,0.00369892,0.11801312,-0.0
 9621133,-0.05331290,-0.10021591,0.07263299,0.05361818,0.00055453,0.001
 20130,-0.00011796,0.00067132,0.00004245,-0.00006083,-0.00005327,0.0001
 1122,0.00000988,-0.00006741,-0.00012348,0.00004001,-0.00000314,0.00000
 795,-0.00005515,0.00031148,-0.00000305,0.00047469,0.00003388,0.0000714
 3,-0.00060293,-0.00021338,-0.00005822,-0.00037082,0.00000370,-0.000020
 26,-0.00004357,-0.00058815,0.00023086,0.00019351,-0.00001368,0.0000565
 9,-0.00000494,-0.00101245,-0.00502668,-0.00202299,0.00278810,0.0012735
 5,0.00043751,-0.00117695,0.00180495,0.00103525,-0.34856526,-0.10718986
 ,-0.11536036,-0.01714892,-0.01376930,-0.01286456,0.36460118,0.00200605
 ,0.00012757,-0.00011279,-0.00025490,0.00010397,0.00052015,0.00021927,-
 0.00025293,0.00017350,0.00027406,-0.00008206,0.00013565,-0.00002199,0.
 00002192,0.00002070,0.00027708,-0.00008496,0.00044591,0.00010391,0.000
 04295,-0.00058920,-0.00007689,-0.00008887,-0.00045726,0.00000758,-0.00
 001844,-0.00003713,-0.00031180,0.00042253,0.00021068,0.00003205,-0.000
 06148,-0.00009415,-0.03236078,-0.00716881,-0.01394584,-0.00385909,-0.0
 0772218,0.00028411,0.00378760,0.00236613,0.00178384,-0.11104709,-0.107
 60902,-0.05228823,0.01995541,0.01099153,0.00978811,0.12140339,0.109001
 07,-0.00107590,-0.00021847,-0.00027203,0.00007498,0.00004952,-0.000320
 29,-0.00021285,0.00027916,0.00010982,-0.00021978,-0.00010391,-0.000296
 30,0.00000298,0.00000205,-0.00002758,-0.00021726,0.00014347,-0.0004797
 4,-0.00011987,-0.00007079,0.00055167,0.00011367,0.00002412,0.00036742,
 -0.00000437,0.00002260,0.00001544,0.00037302,-0.00011517,-0.00027594,-
 0.00000956,-0.00005901,0.00009334,0.00622946,0.01210328,-0.00168896,0.
 00100699,0.00087888,0.00371097,0.00197005,-0.00064127,-0.00196412,-0.1
 5102925,-0.07225120,-0.06506590,0.01376722,0.00588788,0.00052600,0.129
 20027,0.05405238,0.06513605,0.00080648,0.00011034,-0.00348639,0.000083
 74,0.00004640,0.00061449,0.00007010,0.00003311,-0.00028085,0.00239222,
 0.00062560,-0.00535447,-0.00007502,-0.00008224,0.00004305,0.00139225,-
 0.00221990,0.01807775,-0.22182940,0.00126876,0.08014224,0.00243802,0.0
 0096144,-0.01086948,-0.00051090,0.00015122,-0.00175071,-0.00232439,0.0
 0004682,0.00206035,0.00001237,0.00006854,-0.00044437,0.00005147,-0.000
 90049,0.00501300,-0.00086852,0.00006367,-0.00127776,0.00057871,-0.0000
 0115,-0.00119572,0.00011329,0.00109255,-0.00143906,0.00017444,-0.00023
 400,0.00019694,-0.00017323,-0.00019821,0.00020845,0.51958228,-0.000049
 27,0.00025285,0.00002432,0.00001337,0.00157268,0.00023326,-0.00003131,
 -0.00033881,0.00000180,0.00056565,0.00309575,0.00072280,-0.00012177,-0
 .00062239,-0.00007466,-0.00435490,-0.00501012,0.00267008,0.00432409,-0
 .06148218,0.00138310,-0.00032660,-0.00159426,0.00043093,-0.00009467,-0
 .00041750,0.00029467,-0.00009452,0.00055695,0.00000248,0.00001371,-0.0
 0000106,-0.00000177,0.00002124,-0.00005190,-0.00002496,-0.00005090,-0.
 00005343,-0.00004410,0.00006083,-0.00005066,-0.00005281,-0.00004138,-0
 .00019758,0.00008437,0.00000653,0.00003070,0.00001917,-0.00001251,0.00
 001557,0.00002041,-0.00176389,0.59156687,0.00020019,-0.00003701,0.0022
 2596,0.00138153,0.00013845,-0.00152056,-0.00010552,0.00000319,-0.00025
 123,-0.00467789,0.00079588,-0.00102921,0.00045377,-0.00007108,-0.00001
 123,0.03879531,0.00154097,-0.04258082,0.04814519,0.00296140,-0.1176453
 0,0.00027030,-0.00036824,0.00107952,0.00128082,0.00023259,-0.00296042,
 0.00223081,-0.00004853,-0.00075666,-0.00003585,-0.00004905,0.00034004,
 0.00019615,0.00049699,-0.00308172,0.00042496,-0.00006052,0.00077658,-0
 .00044548,0.00001274,0.00069017,-0.00009755,-0.00068360,0.00089498,-0.
 00009470,0.00015261,-0.00013698,0.00011130,0.00011577,-0.00012642,0.06
 184965,-0.00579593,0.61317079,0.00021978,-0.00001926,0.00000038,-0.000
 54264,0.00008007,-0.00024063,0.00001394,-0.00002086,0.00012383,0.00028
 754,-0.00020655,0.00171703,-0.00001354,0.00000601,-0.00003540,-0.00500
 586,0.00017526,0.00146691,0.00023991,-0.00450565,0.04339459,-0.0012962
 8,0.00012693,-0.00037514,0.00082111,-0.00002533,-0.00038070,0.00045587
 ,-0.00002571,0.00017540,-0.00001114,-0.00000425,0.00006438,0.00000364,
 0.00002045,-0.00011401,0.00003793,-0.00000361,0.00002076,0.00002263,-0
 .00001129,0.00000244,-0.00000190,-0.00001836,0.00003345,-0.00000592,0.
 00000413,0.00000039,0.00000040,0.00000473,-0.00000264,-0.07039858,0.00
 990809,-0.08687751,0.08056469,-0.00002464,-0.00009553,0.00001219,-0.00
 000040,0.00000557,0.00001841,-0.00000530,-0.00004185,-0.00000498,0.000
 01771,0.00021148,0.00001813,-0.00000073,0.00001864,0.00000446,0.000038
 60,0.00062213,-0.00022224,-0.00031868,0.00028995,-0.00020152,0.0000918
 7,0.00035100,0.00004796,-0.00008529,-0.00044704,-0.00002725,-0.0000040
 8,0.00021066,0.00000004,-0.00000005,0.00003418,0.00000046,-0.00000132,
 -0.00001172,-0.00005255,0.00000488,0.00000221,0.00001266,-0.00000454,0
 .00000442,0.00000674,-0.00000232,-0.00002118,0.00002438,-0.00000012,0.
 00000393,-0.00000498,0.00000416,0.00000539,-0.00000310,0.00840266,-0.0
 5727093,0.03175257,-0.00918928,0.05267493,0.00002619,-0.00000035,-0.00
 021891,0.00032643,-0.00001940,0.00001746,-0.00001139,0.00000725,-0.000
 06783,-0.00018326,0.00014592,-0.00095847,0.00002731,-0.00000143,-0.000
 00235,0.00283425,-0.00030078,0.00200833,0.00313440,0.00218445,-0.02260
 277,0.00011040,0.00002270,0.00010822,0.00006834,-0.00006405,0.00008048
 ,-0.00008680,0.00003332,0.00005792,0.00000555,0.00000737,-0.00002159,-
 0.00002285,-0.00011089,0.00052871,-0.00007488,0.00000675,-0.00015576,0
 .00007734,-0.00000951,-0.00015628,0.00001951,0.00012951,-0.00015339,0.
 00001512,-0.00002880,0.00002828,-0.00002169,-0.00002444,0.00002677,-0.
 07242762,0.03086562,-0.30901910,0.07110431,-0.03439427,0.33831735,0.00
 033202,-0.00001814,0.00063860,-0.00017591,-0.00019204,-0.00063004,-0.0
 0000724,0.00004731,0.00003999,-0.00083407,-0.00056094,0.00129997,0.000
 17664,0.00018585,-0.00004620,0.00028896,0.00145867,-0.00676296,-0.0300
 3430,0.02596628,0.00901309,0.00073102,-0.00055324,0.00052743,0.0002981
 1,-0.00003563,-0.00009669,0.00001747,-0.00006035,0.00006095,0.00000382
 ,-0.00001761,0.00004862,0.00005696,0.00021277,-0.00076789,0.00011407,-
 0.00002633,0.00020642,-0.00010619,-0.00000617,0.00018626,-0.00003446,-
 0.00019589,0.00020830,-0.00002040,0.00004087,-0.00002464,0.00002451,0.
 00003097,-0.00002272,-0.10285020,0.10130581,-0.01747689,-0.00240439,0.
 00743308,-0.00175453,0.12324808,0.00011025,-0.00007247,-0.00025340,-0.
 00010940,-0.00002733,0.00012941,0.00000261,0.00001569,-0.00001774,0.00
 002516,-0.00020816,-0.00048078,-0.00008294,-0.00000489,0.00004369,0.00
 003900,0.00046813,0.00190205,0.00303080,0.00806945,-0.00494428,0.00123
 430,-0.00001275,-0.00031743,-0.00062749,0.00007558,0.00001129,-0.00061
 526,-0.00014408,0.00033684,0.00000701,0.00002253,-0.00004557,0.0000120
 6,-0.00005145,0.00029170,-0.00006559,0.00002274,-0.00004638,-0.0000129
 6,0.00002988,-0.00002051,0.00000559,0.00007383,-0.00009470,0.00001560,
 -0.00001368,0.00000198,-0.00000736,-0.00001000,0.00000641,0.10489997,-
 0.25831897,0.03274775,-0.00024058,-0.00132667,0.00029129,-0.11915822,0
 .27174877,-0.00102678,0.00009038,0.00005143,0.00049679,0.00007314,0.00
 098037,-0.00000145,-0.00005216,-0.00000193,0.00078243,0.00061654,-0.00
 122589,-0.00011700,-0.00010514,0.00003068,0.00059199,-0.00241225,0.004
 67686,0.01642474,-0.01722886,-0.00205003,-0.00094420,-0.00003479,0.000
 52564,-0.00009029,-0.00143688,-0.00194287,0.00049482,0.00056073,-0.000
 87742,0.00000160,-0.00005778,-0.00001623,-0.00004625,-0.00007763,-0.00
 016528,0.00000353,0.00001874,0.00002386,-0.00002366,0.00001285,0.00003
 771,0.00000864,-0.00005173,0.00007845,-0.00000594,0.00000695,-0.000009
 68,0.00001329,0.00001132,-0.00001212,-0.02018762,0.03674282,-0.0592222
 9,-0.01367697,0.02792304,-0.00117018,0.01330449,-0.03457825,0.05857090
 ,0.00032781,-0.00012006,0.00064918,-0.00012620,0.00032499,-0.00060360,
 -0.00001798,-0.00006056,0.00003156,-0.00076485,0.00034531,0.00143979,0
 .00014259,-0.00018583,-0.00009131,0.00021456,-0.00002348,-0.00708827,-
 0.03315811,-0.02276856,0.00454431,0.00065380,0.00031359,0.00062527,0.0
 0034412,0.00000538,-0.00005736,0.00007966,0.00003873,0.00004873,0.0000
 0387,0.00000059,0.00005139,0.00003580,0.00007896,-0.00080232,0.0001324
 9,0.00000089,0.00020472,-0.00010826,0.00001999,0.00017932,-0.00002715,
 -0.00016927,0.00023873,-0.00002799,0.00003851,-0.00003320,0.00002672,0
 .00002863,-0.00003289,-0.12866513,-0.10927760,-0.04552861,-0.00298717,
 -0.00635622,-0.00316613,0.01117551,0.01153744,0.00399784,0.15274588,0.
 00006770,-0.00004951,0.00014929,0.00001867,0.00001719,-0.00025703,0.00
 000101,0.00000263,0.00001427,-0.00012149,-0.00024907,0.00053097,0.0000
 8339,-0.00000109,-0.00004215,-0.00012638,0.00057392,-0.00190723,-0.001
 87246,0.00659593,0.00549889,-0.00107031,-0.00000335,0.00008936,0.00053
 739,-0.00034995,0.00036116,0.00048683,-0.00004312,-0.00014123,-0.00000
 919,0.00000386,0.00003997,-0.00002466,-0.00003556,-0.00014940,0.000063
 83,0.00001069,0.00001687,0.00001809,0.00000264,-0.00000801,0.00000837,
 0.00001729,0.00003983,-0.00000900,-0.00000203,-0.00000866,0.00000285,0
 .00000011,-0.00000725,-0.11237122,-0.21168160,-0.06383695,0.00394506,0
 .00478041,0.00125974,-0.01585705,-0.02033614,-0.01002104,0.12622857,0.
 22074675,-0.00104300,0.00001966,0.00008683,0.00047822,-0.00029734,0.00
 091179,0.00000905,0.00004851,0.00001264,0.00068990,-0.00052937,-0.0012
 4023,-0.00007591,0.00011191,0.00004721,0.00080478,0.00154052,0.0047081
 2,0.01799064,0.01663818,0.00252554,-0.00110846,0.00001429,0.00056746,0
 .00019068,0.00175118,-0.00149734,0.00054805,-0.00046923,-0.00104216,0.
 00000318,0.00005796,0.00000581,-0.00003643,0.00014694,-0.00020691,0.00
 003261,-0.00001163,0.00005629,-0.00004507,-0.00001576,0.00008535,0.000
 00415,-0.00002172,0.00003294,-0.00000109,0.00000547,-0.00001003,0.0000
 1009,0.00000693,-0.00000809,-0.04949185,-0.06750159,-0.08083610,-0.016
 40085,-0.02491013,-0.00664688,0.00204845,0.00503662,0.00171804,0.04539
 284,0.06837861,0.08072972\\-0.00001217,0.00000585,0.00000935,0.0000081
 7,-0.00000028,-0.00000204,0.00000016,0.00000422,-0.00000104,0.00001012
 ,-0.00000141,-0.00001287,0.00000161,0.00000094,-0.00000021,-0.00000225
 ,0.00000857,-0.00000571,-0.00001476,-0.00000077,0.00000894,0.00000177,
 -0.00000118,0.00001059,0.00000231,-0.00000320,0.00000343,0.00000248,-0
 .00000479,-0.00001473,-0.00000244,0.00000267,0.00000537,-0.00000754,-0
 .00003745,0.00000213,0.00002949,0.00000386,0.00000503,-0.00004533,0.00
 000998,-0.00000322,0.00001056,0.00002895,-0.00000322,-0.00001653,-0.00
 000783,-0.00000490,-0.00000375,-0.00000022,0.00000573,0.00003367,-0.00
 000426,-0.00001080,0.00000484,-0.00000133,0.00000284,0.00000025,-0.000
 00019,0.00000178,-0.00000068,-0.00000215,0.00000356\\\@
 The archive entry for this job was punched.


 IT MATTERS NOT HOW DEEP YOU PLOW,
 BUT HOW LONG YOU STAY IN THE FURROW.
 Job cpu time:       0 days  1 hours  0 minutes 14.9 seconds.
 Elapsed time:       0 days  0 hours  3 minutes 51.9 seconds.
 File lengths (MBytes):  RWF=    154 Int=      0 D2E=      0 Chk=      6 Scr=      1
 Normal termination of Gaussian 16 at Wed Jun 29 11:41:34 2022.
