                  Welcome to Q-Chem
     A Quantum Leap Into The Future Of Chemistry


 Q-Chem 5.4 (devel), Q-Chem, Inc., Pleasanton, CA (2021)

 E. Epifanovsky,  A. T. B. Gilbert,  Xintian Feng,  Joonho Lee,  Yuezhi Mao,  
 N. Mardirossian,  P. Pokhilko,  A. White,  M. Wormit,  M. P. Coons,  
 A. L. Dempwolff,  Zhengting Gan,  D. Hait,  P. R. Horn,  L. D. Jacobson,  
 I. Kaliman,  J. Kussmann,  A. W. Lange,  Ka Un Lao,  D. S. Levine,  Jie Liu,  
 S. C. McKenzie,  A. F. Morrison,  K. Nanda,  F. Plasser,  D. R. Rehn,  
 M. L. Vidal,  Zhi-Qiang You,  Ying Zhu,  B. Alam,  B. Albrecht,  
 A. Aldossary,  E. Alguire,  J. H. Andersen,  D. Barton,  K. Begam,  A. Behn,  
 Y. A. Bernard,  E. J. Berquist,  H. Burton,  A. Carreras,  K. Carter-Fenk,  
 R. Chakraborty,  A. D. Chien,  K. D. Closser,  V. Cofer-Shabica,  
 S. Dasgupta,  Jia Deng,  M. de Wergifosse,  M. Diedenhofen,  Hainam Do,  
 S. Ehlert,  Po-Tung Fang,  S. Fatehi,  Qingguo Feng,  T. Friedhoff,  
 J. Gayvert,  Qinghui Ge,  G. Gidofalvi,  M. Goldey,  J. Gomes,  
 C. Gonzalez-Espinoza,  S. Gulania,  A. Gunina,  M. W. D. Hanson-Heine,  
 P. H. P. Harbach,  A. W. Hauser,  M. F. Herbst,  M. Hernandez Vera,  
 M. Hodecker,  Z. C. Holden,  S. Houck,  Xunkun Huang,  Kerwin Hui,  
 B. C. Huynh,  M. Ivanov,  Hyunjun Ji,  Hanjie Jiang,  B. Kaduk,  S. Kaehler,  
 K. Khistyaev,  Jaehoon Kim,  P. Klunzinger,  Z. Koczor-Benda,  
 Joong Hoon Koh,  D. Kosenkov,  L. Koulias,  T. Kowalczyk,  C. M. Krauter,  
 K. Kue,  A. Kunitsa,  T. Kus,  A. Landau,  K. V. Lawler,  D. Lefrancois,  
 S. Lehtola,  Rain Li,  Yi-Pei Li,  Jiashu Liang,  M. Liebenthal,  
 Hung-Hsuan Lin,  You-Sheng Lin,  Fenglai Liu,  Kuan-Yu Liu,  
 M. Loipersberger,  A. Luenser,  A. Manjanath,  P. Manohar,  E. Mansoor,  
 S. F. Manzer,  Shan-Ping Mao,  A. V. Marenich,  T. Markovich,  S. Mason,  
 S. A. Maurer,  P. F. McLaughlin,  M. F. S. J. Menger,  J.-M. Mewes,  
 S. A. Mewes,  P. Morgante,  J. W. Mullinax,  K. J. Oosterbaan,  G. Paran,  
 Alexander C. Paul,  Suranjan K. Paul,  F. Pavosevic,  Zheng Pei,  S. Prager,  
 E. I. Proynov,  E. Ramos,  B. Rana,  A. E. Rask,  A. Rettig,  R. M. Richard,  
 F. Rob,  E. Rossomme,  T. Scheele,  M. Scheurer,  M. Schneider,  
 N. Sergueev,  S. M. Sharada,  W. Skomorowski,  D. W. Small,  C. J. Stein,  
 Yu-Chuan Su,  E. J. Sundstrom,  Zhen Tao,  J. Thirman,  T. Tsuchimochi,  
 N. M. Tubman,  S. P. Veccham,  O. Vydrov,  J. Wenzel,  J. Witte,  A. Yamada,  
 Kun Yao,  S. Yeganeh,  S. R. Yost,  A. Zech,  Igor Ying Zhang,  Xing Zhang,  
 Yu Zhang,  D. Zuev,  A. Aspuru-Guzik,  A. T. Bell,  N. A. Besley,  
 K. B. Bravaya,  B. R. Brooks,  D. Casanova,  Jeng-Da Chai,  S. Coriani,  
 C. J. Cramer,  A. E. DePrince, III,  R. A. DiStasio Jr.,  A. Dreuw,  
 B. D. Dunietz,  T. R. Furlani,  W. A. Goddard III,  S. Grimme,  
 S. Hammes-Schiffer,  T. Head-Gordon,  W. J. Hehre,  Chao-Ping Hsu,  
 T.-C. Jagau,  Yousung Jung,  A. Klamt,  Jing Kong,  D. S. Lambrecht,  
 WanZhen Liang,  N. J. Mayhall,  C. W. McCurdy,  J. B. Neaton,  
 C. Ochsenfeld,  J. A. Parkhill,  R. Peverati,  V. A. Rassolov,  Yihan Shao,  
 L. V. Slipchenko,  T. Stauch,  R. P. Steele,  J. E. Subotnik,  
 A. J. W. Thom,  A. Tkatchenko,  D. G. Truhlar,  T. Van Voorhis,  
 T. A. Wesolowski,  K. B. Whaley,  H. L. Woodcock III,  P. M. Zimmerman,  
 S. Faraji,  P. M. W. Gill,  M. Head-Gordon,  J. M. Herbert,  A. I. Krylov

 Additional authors for Version 5.4.1: 
 S. Kotaru,  Shaozhi Li,  Xiangyuan Li,  F. Matz,  A. Molle,  Haisheng Ren,  
 Yingli Su,  Hung-Yi Tsai,  C. Utku,  Fang Wang

 Contributors to earlier versions of Q-Chem not listed above: 
 R. D. Adamson,  B. Austin,  R. Baer,  J. Baker,  G. J. O. Beran,  
 K. Brandhorst,  S. T. Brown,  E. F. C. Byrd,  A. K. Chakraborty,  
 G. K. L. Chan,  Chun-Min Chang,  Yunqing Chen,  C.-L. Cheng,  
 Siu Hung Chien,  D. M. Chipman,  D. L. Crittenden,  H. Dachsel,  
 R. J. Doerksen,  A. D. Dutoi,  R. G. Edgar,  J. Fosso-Tande,  
 L. Fusti-Molnar,  D. Ghosh,  A. Ghysels,  A. Golubeva-Zadorozhnaya,  
 J. Gonthier,  M. S. Gordon,  S. R. Gwaltney,  G. Hawkins,  J. E. Herr,  
 A. Heyden,  S. Hirata,  E. G. Hohenstein,  G. Kedziora,  F. J. Keil,  
 C. Kelley,  Jihan Kim,  R. A. King,  R. Z. Khaliullin,  P. P. Korambath,  
 W. Kurlancheek,  A. Laurent,  A. M. Lee,  M. S. Lee,  S. V. Levchenko,  
 Ching Yeh Lin,  D. Liotard,  E. Livshits,  R. C. Lochan,  I. Lotan,  
 L. A. Martinez-Martinez,  P. E. Maslen,  N. Nair,  D. P. O'Neill,  
 D. Neuhauser,  E. Neuscamman,  C. M. Oana,  R. Olivares-Amaya,  R. Olson,  
 T. M. Perrine,  B. Peters,  P. A. Pieniazek,  A. Prociuk,  Y. M. Rhee,  
 J. Ritchie,  M. A. Rohrdanz,  E. Rosta,  N. J. Russ,  H. F. Schaefer III,  
 M. W. Schmidt,  N. E. Schultz,  S. Sharma,  N. Shenvi,  C. D. Sherrill,  
 A. C. Simmonett,  A. Sodt,  T. Stein,  D. Stuck,  K. S. Thanthiriwatte,  
 V. Vanovschi,  L. Vogt,  Tao Wang,  A. Warshel,  M. A. Watson,  
 C. F. Williams,  Q. Wu,  X. Xu,  Jun Yang,  W. Zhang,  Yan Zhao

 Please cite Q-Chem as follows:
 Y. Shao et al., Mol. Phys. 113, 184-215 (2015)
 DOI: 10.1080/00268976.2014.952696

 Q-Chem 5.4.1 for Intel X86 EM64T Linux

 Parts of Q-Chem use Armadillo 9.800.1 (Horizon Scraper).
 http://arma.sourceforge.net/

 Q-Chem begins on Thu May 26 10:29:04 2022  

 Host: gadi-cpu-clx-2880.gadi.nci.org.au
0

     Scratch files written to /jobfs/41312631.gadi-pbs/qchem3075247//
 Processing $rem in /apps/qchem/5.4.1/config/preferences:
 Processing $rem in /home/561/yj5695/.qchemrc:
 Symmetry turned off for PCM/SM12/SMD calculation
 Method-specific promolecule density matrix will be built for SM12 calculation

 Checking the input file for inconsistencies... 	...done.

--------------------------------------------------------------
User input:
--------------------------------------------------------------
$molecule
-1  1
C -1.302402  0.73735 -0.931534
C -2.509464  0.760738 -1.631343
H -3.454237  0.704427 -1.097078
C -2.492475  0.864437 -3.020855
H -3.428852  0.88795 -3.570393
C -1.276348  0.940972 -3.703177
H -1.266241  1.023294 -4.786045
C -0.075426  0.914174 -2.994519
H  0.871273  0.976931 -3.52298
C -0.083925  0.809232 -1.602796
H  0.846873  0.790065 -1.044501
S -1.336541  0.508879  0.854963
O  0.011442  0.924736  1.328744
O -2.438318  1.415467  1.306071
N -1.552017 -1.003281  1.194036
H -2.519201 -1.241733  0.956995
$end

$rem
jobtype sp
exchange M062X
basis 6-31+G*
SMX_GAS_PHASE = TRUE
solvent_method sm12
$end

$smx
solvent water
charges mk
$end
--------------------------------------------------------------
 ----------------------------------------------------------------
             Standard Nuclear Orientation (Angstroms)
    I     Atom           X                Y                Z
 ----------------------------------------------------------------
    1      C      -1.3024020000     0.7373500000    -0.9315340000
    2      C      -2.5094640000     0.7607380000    -1.6313430000
    3      H      -3.4542370000     0.7044270000    -1.0970780000
    4      C      -2.4924750000     0.8644370000    -3.0208550000
    5      H      -3.4288520000     0.8879500000    -3.5703930000
    6      C      -1.2763480000     0.9409720000    -3.7031770000
    7      H      -1.2662410000     1.0232940000    -4.7860450000
    8      C      -0.0754260000     0.9141740000    -2.9945190000
    9      H       0.8712730000     0.9769310000    -3.5229800000
   10      C      -0.0839250000     0.8092320000    -1.6027960000
   11      H       0.8468730000     0.7900650000    -1.0445010000
   12      S      -1.3365410000     0.5088790000     0.8549630000
   13      O       0.0114420000     0.9247360000     1.3287440000
   14      O      -2.4383180000     1.4154670000     1.3060710000
   15      N      -1.5520170000    -1.0032810000     1.1940360000
   16      H      -2.5192010000    -1.2417330000     0.9569950000
 ----------------------------------------------------------------
 Nuclear Repulsion Energy =         616.62265377 hartrees
 There are       41 alpha and       41 beta electrons
 Requested basis set is 6-31+G(d)
 There are 63 shells and 206 basis functions

 Total QAlloc Memory Limit   2000 MB
 Mega-Array Size       188 MB
 MEM_STATIC part       192 MB
 A cutoff of  1.0D-08 yielded   1705 shell pairs
 There are     19275 function pairs
 Smallest overlap matrix eigenvalue = 4.02E-06

 Q-Chem warning in module stvman/mkSTV.C, line 323:

 Overlap eigenvalue is smaller than square root of threshold
 Use THRESH >= 12 to get rid of this warning


 Scale SEOQF with 1.000000e-01/1.000000e-01/1.000000e-01

 Standard Electronic Orientation quadrupole field applied
 Nucleus-field energy     =    -0.0000000226 hartrees
 ================ Generating on-the-fly Promolecule Density  ================
Attempting to make child job directory: /jobfs/41312631.gadi-pbs/qchem3075247//Frg1/
Attempting to make child job directory: /jobfs/41312631.gadi-pbs/qchem3075247//Frg2/
Attempting to make child job directory: /jobfs/41312631.gadi-pbs/qchem3075247//Frg3/
Attempting to make child job directory: /jobfs/41312631.gadi-pbs/qchem3075247//Frg4/
Attempting to make child job directory: /jobfs/41312631.gadi-pbs/qchem3075247//Frg5/
Creating input file /jobfs/41312631.gadi-pbs/qchem3075247/Frg1.input
using default PutDataFrgm: nothing
calling putenv with: QCSCRATCH=/jobfs/41312631.gadi-pbs/qchem3075247/ 
Spawning Job For Fragment 0
Done Job For Fragment 0
calling putenv with: QCSCRATCH=/jobfs/41312631.gadi-pbs 
calling putenv with: QCTHREADS=16 
Creating input file /jobfs/41312631.gadi-pbs/qchem3075247/Frg2.input
using default PutDataFrgm: nothing
calling putenv with: QCSCRATCH=/jobfs/41312631.gadi-pbs/qchem3075247/ 
Spawning Job For Fragment 1
Done Job For Fragment 1
calling putenv with: QCSCRATCH=/jobfs/41312631.gadi-pbs 
calling putenv with: QCTHREADS=16 
Creating input file /jobfs/41312631.gadi-pbs/qchem3075247/Frg3.input
using default PutDataFrgm: nothing
calling putenv with: QCSCRATCH=/jobfs/41312631.gadi-pbs/qchem3075247/ 
Spawning Job For Fragment 2
Done Job For Fragment 2
calling putenv with: QCSCRATCH=/jobfs/41312631.gadi-pbs 
calling putenv with: QCTHREADS=16 
Creating input file /jobfs/41312631.gadi-pbs/qchem3075247/Frg4.input
using default PutDataFrgm: nothing
calling putenv with: QCSCRATCH=/jobfs/41312631.gadi-pbs/qchem3075247/ 
Spawning Job For Fragment 3
Done Job For Fragment 3
calling putenv with: QCSCRATCH=/jobfs/41312631.gadi-pbs 
calling putenv with: QCTHREADS=16 
Creating input file /jobfs/41312631.gadi-pbs/qchem3075247/Frg5.input
using default PutDataFrgm: nothing
calling putenv with: QCSCRATCH=/jobfs/41312631.gadi-pbs/qchem3075247/ 
Spawning Job For Fragment 4
Done Job For Fragment 4
calling putenv with: QCSCRATCH=/jobfs/41312631.gadi-pbs 
calling putenv with: QCTHREADS=16 
 Time for running child jobs:  CPU 2.46 s  wall 2.02 s
 ============= Method Specific Promolecule Density Constructed =============
 Guess from superposition of atomic densities
 Warning:  Energy on first SCF cycle will be non-variational
 SAD guess density has 81.000000 electrons

 -----------------------------------------------------------------------
  General SCF calculation program by
  Eric Jon Sundstrom, Paul Horn, Yuezhi Mao, Dmitri Zuev, Alec White,
  David Stuck, Shaama M.S., Shane Yost, Joonho Lee, David Small,
  Daniel Levine, Susi Lehtola, Hugh Burton, Evgeny Epifanovsky,
  Bang C. Huynh
 -----------------------------------------------------------------------
 Exchange:     0.5400 Hartree-Fock + 1.0000 M06-2X
 Correlation:  1.0000 M06-2X
 Using SG-3 standard quadrature grid
 using 16 threads for integral computing
 -------------------------------------------------------
 OpenMP Integral computing Module                
 Release: version 1.0, May 2013, Q-Chem Inc. Pittsburgh 
 -------------------------------------------------------
 A restricted SCF calculation will be
 performed using DIIS
 SCF converges when DIIS error is below 1.0e-05
 ---------------------------------------
  Cycle       Energy         DIIS error
 ---------------------------------------
    1    -838.3636860383      5.30e-02  
    2    -835.1446832863      7.50e-03  
    3    -835.0459049580      9.44e-03  
    4    -835.3987840382      1.04e-03  
    5    -835.4035096063      4.64e-04  
    6    -835.4046004870      1.18e-04  
    7    -835.4046746191      2.91e-05  
    8    -835.4046801128      7.68e-06  Convergence criterion met
 ---------------------------------------
 SCF time:   CPU 55.72s  wall 4.00s 
 SCF   energy in the final basis set =     -835.4046801128
 Total energy in the final basis set =     -835.4046801128
 Exchange:     0.5400 Hartree-Fock + 1.0000 M06-2X
 Correlation:  1.0000 M06-2X
 Using SG-3 standard quadrature grid
 
 SM12 calculation using Merz-Singh-Kollman charges
 Citation of the SM12 model:
 Marenich, A.V.; Cramer, C.J.; Truhlar, D.G.
 J. Chem. Theory Comput. 2013, 9, 609-612.
 iSolventCode=           1
 Solvent: water                                                           
 
  Building new vdw surfaces
         Merz-Kollman ESP Net Atomic Charges

     Atom                 Charge (a.u.)
  ----------------------------------------
      1 C                    -0.145366
      2 C                    -0.044648
      3 H                     0.114706
      4 C                    -0.180761
      5 H                     0.117878
      6 C                    -0.164534
      7 H                     0.115419
      8 C                    -0.168629
      9 H                     0.119217
     10 C                    -0.074696
     11 H                     0.141080
     12 S                     1.168242
     13 O                    -0.641772
     14 O                    -0.698349
     15 N                    -0.996350
     16 H                     0.338563
  ----------------------------------------
  Sum of atomic charges =    -1.000000

  Related Dipole Moment =     8.5774 (X  5.2124 Y -2.6109 Z -6.2917)


 Charges (in A.U.) from Merz-Kollman fitting 
 -----------------------------------------------
 Center     Atomic                  MZ       
 Number     Number                  Charge
 -----------------------------------------------
    1          6                   -0.145366
    2          6                   -0.044648
    3          1                    0.114706
    4          6                   -0.180761
    5          1                    0.117878
    6          6                   -0.164534
    7          1                    0.115419
    8          6                   -0.168629
    9          1                    0.119217
   10          6                   -0.074696
   11          1                    0.141080
   12         16                    1.168242
   13          8                   -0.641772
   14          8                   -0.698349
   15          7                   -0.996350
   16          1                    0.338563
 -----------------------------------------------
 A restricted SCF calculation will be
 performed using Roothaan-Hall, DIIS
 SCF converges when DIIS error is below 1.0e-05
 ---------------------------------------
  Cycle       Energy         DIIS error
 ---------------------------------------
         Merz-Kollman ESP Net Atomic Charges

     Atom                 Charge (a.u.)
  ----------------------------------------
      1 C                    -0.177397
      2 C                    -0.066566
      3 H                     0.129807
      4 C                    -0.164687
      5 H                     0.144308
      6 C                    -0.125474
      7 H                     0.136733
      8 C                    -0.160458
      9 H                     0.147340
     10 C                    -0.101373
     11 H                     0.149165
     12 S                     1.197781
     13 O                    -0.687207
     14 O                    -0.734947
     15 N                    -1.053718
     16 H                     0.366695
  ----------------------------------------
  Sum of atomic charges =    -1.000000

  Related Dipole Moment =    10.5066 (X  4.9117 Y -2.4675 Z -8.9540)


 Charges (in A.U.) from Merz-Kollman fitting 
 -----------------------------------------------
 Center     Atomic                  MZ       
 Number     Number                  Charge
 -----------------------------------------------
    1          6                   -0.177397
    2          6                   -0.066566
    3          1                    0.129807
    4          6                   -0.164687
    5          1                    0.144308
    6          6                   -0.125474
    7          1                    0.136733
    8          6                   -0.160458
    9          1                    0.147340
   10          6                   -0.101373
   11          1                    0.149165
   12         16                    1.197781
   13          8                   -0.687207
   14          8                   -0.734947
   15          7                   -1.053718
   16          1                    0.366695
 -----------------------------------------------
    1    -835.4046794179      7.01e-04  Roothaan Step
 ---------------------------------------
  Cycle       Energy         DIIS error
 ---------------------------------------
         Merz-Kollman ESP Net Atomic Charges

     Atom                 Charge (a.u.)
  ----------------------------------------
      1 C                    -0.132232
      2 C                    -0.063808
      3 H                     0.128751
      4 C                    -0.193779
      5 H                     0.157896
      6 C                    -0.150313
      7 H                     0.152173
      8 C                    -0.190267
      9 H                     0.160483
     10 C                    -0.084261
     11 H                     0.144770
     12 S                     1.227915
     13 O                    -0.696353
     14 O                    -0.752622
     15 N                    -1.065006
     16 H                     0.356653
  ----------------------------------------
  Sum of atomic charges =    -1.000000

  Related Dipole Moment =    10.5592 (X  5.0560 Y -2.3925 Z -8.9559)


 Charges (in A.U.) from Merz-Kollman fitting 
 -----------------------------------------------
 Center     Atomic                  MZ       
 Number     Number                  Charge
 -----------------------------------------------
    1          6                   -0.132232
    2          6                   -0.063808
    3          1                    0.128751
    4          6                   -0.193779
    5          1                    0.157896
    6          6                   -0.150313
    7          1                    0.152173
    8          6                   -0.190267
    9          1                    0.160483
   10          6                   -0.084261
   11          1                    0.144770
   12         16                    1.227915
   13          8                   -0.696353
   14          8                   -0.752622
   15          7                   -1.065006
   16          1                    0.356653
 -----------------------------------------------
    1    -835.3961724967      4.15e-04  
         Merz-Kollman ESP Net Atomic Charges

     Atom                 Charge (a.u.)
  ----------------------------------------
      1 C                    -0.171357
      2 C                    -0.060190
      3 H                     0.129012
      4 C                    -0.181186
      5 H                     0.155266
      6 C                    -0.128371
      7 H                     0.147489
      8 C                    -0.178865
      9 H                     0.158312
     10 C                    -0.088306
     11 H                     0.146162
     12 S                     1.235719
     13 O                    -0.701579
     14 O                    -0.752577
     15 N                    -1.071866
     16 H                     0.362337
  ----------------------------------------
  Sum of atomic charges =    -1.000000

  Related Dipole Moment =    10.8480 (X  4.9649 Y -2.3750 Z -9.3481)


 Charges (in A.U.) from Merz-Kollman fitting 
 -----------------------------------------------
 Center     Atomic                  MZ       
 Number     Number                  Charge
 -----------------------------------------------
    1          6                   -0.171357
    2          6                   -0.060190
    3          1                    0.129012
    4          6                   -0.181186
    5          1                    0.155266
    6          6                   -0.128371
    7          1                    0.147489
    8          6                   -0.178865
    9          1                    0.158312
   10          6                   -0.088306
   11          1                    0.146162
   12         16                    1.235719
   13          8                   -0.701579
   14          8                   -0.752577
   15          7                   -1.071866
   16          1                    0.362337
 -----------------------------------------------
    2    -835.3956676127      3.78e-04  
         Merz-Kollman ESP Net Atomic Charges

     Atom                 Charge (a.u.)
  ----------------------------------------
      1 C                    -0.167208
      2 C                    -0.058248
      3 H                     0.129101
      4 C                    -0.185698
      5 H                     0.158028
      6 C                    -0.130157
      7 H                     0.150470
      8 C                    -0.183019
      9 H                     0.160886
     10 C                    -0.084704
     11 H                     0.145631
     12 S                     1.235258
     13 O                    -0.702177
     14 O                    -0.755704
     15 N                    -1.075079
     16 H                     0.362619
  ----------------------------------------
  Sum of atomic charges =    -1.000000

  Related Dipole Moment =    10.9432 (X  4.9842 Y -2.3587 Z -9.4524)


 Charges (in A.U.) from Merz-Kollman fitting 
 -----------------------------------------------
 Center     Atomic                  MZ       
 Number     Number                  Charge
 -----------------------------------------------
    1          6                   -0.167208
    2          6                   -0.058248
    3          1                    0.129101
    4          6                   -0.185698
    5          1                    0.158028
    6          6                   -0.130157
    7          1                    0.150470
    8          6                   -0.183019
    9          1                    0.160886
   10          6                   -0.084704
   11          1                    0.145631
   12         16                    1.235258
   13          8                   -0.702177
   14          8                   -0.755704
   15          7                   -1.075079
   16          1                    0.362619
 -----------------------------------------------
    3    -835.3942216186      6.60e-05  
         Merz-Kollman ESP Net Atomic Charges

     Atom                 Charge (a.u.)
  ----------------------------------------
      1 C                    -0.171904
      2 C                    -0.056998
      3 H                     0.128914
      4 C                    -0.185988
      5 H                     0.158190
      6 C                    -0.127753
      7 H                     0.150321
      8 C                    -0.183681
      9 H                     0.161132
     10 C                    -0.083957
     11 H                     0.145555
     12 S                     1.239784
     13 O                    -0.703703
     14 O                    -0.755895
     15 N                    -1.076218
     16 H                     0.362200
  ----------------------------------------
  Sum of atomic charges =    -1.000000

  Related Dipole Moment =    10.9604 (X  4.9759 Y -2.3499 Z -9.4789)


 Charges (in A.U.) from Merz-Kollman fitting 
 -----------------------------------------------
 Center     Atomic                  MZ       
 Number     Number                  Charge
 -----------------------------------------------
    1          6                   -0.171904
    2          6                   -0.056998
    3          1                    0.128914
    4          6                   -0.185988
    5          1                    0.158190
    6          6                   -0.127753
    7          1                    0.150321
    8          6                   -0.183681
    9          1                    0.161132
   10          6                   -0.083957
   11          1                    0.145555
   12         16                    1.239784
   13          8                   -0.703703
   14          8                   -0.755895
   15          7                   -1.076218
   16          1                    0.362200
 -----------------------------------------------
    4    -835.3934850216      3.30e-05  
    5    -835.3933335243      7.37e-06  Convergence criterion met
 ---------------------------------------
 SCF time:   CPU 54.38s  wall 3.00s 
(0)  E-EN(g) gas-phase elect-nuc energy                 -835.404680113 a.u.
(1)  E-EN(liq) elect-nuc energy of solute               -835.393333524 a.u.
(2)  G-P(liq) polarization free energy of solvation           -79.4296 kcal/mol
(3)  G-ENP(liq) elect-nuc-pol free energy of system     -835.519912624 a.u.
(4)  G-CDS(liq) cavity-dispersion-solvent structure 
     free energy                                                3.2363 kcal/mol
(5)  G-P-CDS(liq) = G-P(liq) + G-CDS(liq) = (2) + (4)         -76.1933 kcal/mol
(6)  G-S(liq) free energy of system = (1) + (5)         -835.514755329 a.u.
(7)  DeltaE-EN(liq) elect-nuc reorganization
     energy of solute molecule (7) = (1) - (0)                  7.1201 kcal/mol
(8)  DeltaG-ENP(liq) elect-nuc-pol free energy
     of solvation (8) = (3) - (0)                             -72.3095 kcal/mol
(9)  DeltaG-S(liq) free energy of  solvation
     (9) = (6) - (0)                                          -69.0732 kcal/mol
 SCF   energy in the final basis set =     -835.5147553287
 Total energy in the final basis set =     -835.5147553287
 
 --------------------------------------------------------------
 
                    Orbital Energies (a.u.)
 --------------------------------------------------------------
 
 Alpha MOs
 -- Occupied --
-90.1381 -19.6276 -19.6271 -14.7310 -10.5914 -10.5786 -10.5766 -10.5757
-10.5752 -10.5745  -8.4514  -6.3739  -6.3731  -6.3724  -1.2145  -1.0996
 -0.9866  -0.9711  -0.8717  -0.8653  -0.7408  -0.7090  -0.6708  -0.6226
 -0.5761  -0.5556  -0.5468  -0.5309  -0.5194  -0.5082  -0.4633  -0.4453
 -0.4295  -0.4220  -0.4014  -0.3831  -0.3708  -0.3409  -0.3338  -0.3273
 -0.2987
 -- Virtual --
 -0.0315  -0.0157  -0.0106  -0.0047  -0.0012   0.0007   0.0069   0.0112
  0.0275   0.0366   0.0438   0.0579   0.0687   0.0843   0.0877   0.0968
  0.0993   0.1047   0.1109   0.1183   0.1264   0.1324   0.1378   0.1416
  0.1461   0.1575   0.1620   0.1721   0.1768   0.1854   0.1958   0.2019
  0.2064   0.2125   0.2166   0.2263   0.2320   0.2419   0.2468   0.2591
  0.2636   0.2682   0.2709   0.2813   0.2879   0.2994   0.3059   0.3193
  0.3218   0.3387   0.3495   0.3644   0.3673   0.3753   0.3872   0.4150
  0.4499   0.5493   0.5761   0.5988   0.6237   0.6631   0.6898   0.6995
  0.7038   0.7160   0.7282   0.7518   0.7548   0.7667   0.7711   0.7985
  0.8074   0.8211   0.8297   0.8929   0.9457   0.9526   0.9652   0.9885
  0.9914   1.0115   1.0171   1.0454   1.0628   1.0663   1.0824   1.1006
  1.1117   1.1400   1.1442   1.1731   1.1887   1.2015   1.2145   1.2421
  1.2863   1.3156   1.3346   1.3550   1.3744   1.3832   1.3886   1.3954
  1.4141   1.4221   1.4810   1.4871   1.5124   1.5232   1.5379   1.5495
  1.6147   1.6790   1.7265   1.8083   1.8203   1.8236   1.8461   1.8571
  1.8851   1.9009   1.9258   1.9630   1.9906   2.0004   2.0184   2.0424
  2.0536   2.1422   2.1482   2.1737   2.1806   2.1937   2.1973   2.2099
  2.2671   2.3148   2.3165   2.3295   2.3558   2.3950   2.5678   2.6272
  2.6360   2.6503   2.6937   2.7347   2.7646   2.7801   2.8485   2.8738
  2.9242   3.0471   3.3732   3.9743   4.0915   4.2117   4.2313   4.2561
  4.2738   4.3078   4.4021   4.4192   4.6951
 --------------------------------------------------------------
 
          Ground-State Mulliken Net Atomic Charges

     Atom                 Charge (a.u.)
  ----------------------------------------
      1 C                    -3.285182
      2 C                     0.115488
      3 H                     0.254829
      4 C                     1.458232
      5 H                     0.286597
      6 C                     1.360555
      7 H                     0.286884
      8 C                     1.300914
      9 H                     0.285324
     10 C                    -1.585330
     11 H                     0.252940
     12 S                     0.485142
     13 O                    -0.886263
     14 O                    -0.763727
     15 N                    -0.965755
     16 H                     0.399353
  ----------------------------------------
  Sum of atomic charges =    -1.000000

         Merz-Kollman ESP Net Atomic Charges

     Atom                 Charge (a.u.)
  ----------------------------------------
      1 C                    -0.171984
      2 C                    -0.056727
      3 H                     0.128844
      4 C                    -0.186236
      5 H                     0.158214
      6 C                    -0.127565
      7 H                     0.150344
      8 C                    -0.183892
      9 H                     0.161146
     10 C                    -0.083653
     11 H                     0.145486
     12 S                     1.241223
     13 O                    -0.703932
     14 O                    -0.756618
     15 N                    -1.076781
     16 H                     0.362130
  ----------------------------------------
  Sum of atomic charges =    -1.000000

  Related Dipole Moment =    10.9661 (X  4.9795 Y -2.3486 Z -9.4839)

 -----------------------------------------------------------------
                    Cartesian Multipole Moments
 -----------------------------------------------------------------
    Charge (ESU x 10^10)
                -4.8032
    Dipole Moment (Debye)
         X       4.9545      Y      -2.3150      Z      -9.4663
       Tot      10.9324
    Quadrupole Moments (Debye-Ang)
        XX     -74.2795     XY       6.1206     YY     -82.5064
        XZ      11.1717     YZ      -5.7309     ZZ     -74.0524
    Octopole Moments (Debye-Ang^2)
       XXX     275.3682    XXY     -63.4419    XYY     110.3270
       YYY    -145.5428    XXZ      10.0396    XYZ       9.9805
       YYZ      41.0056    XZZ      97.1304    YZZ     -38.5713
       ZZZ      84.5990
    Hexadecapole Moments (Debye-Ang^3)
      XXXX   -1148.6047   XXXY     224.0430   XXYY    -307.0591
      XYYY     197.2331   YYYY    -456.3126   XXXZ     -73.0663
      XXYZ      12.4642   XYYZ     -49.0889   YYYZ     188.8865
      XXZZ    -473.4538   XYZZ      52.8868   YYZZ    -404.4164
      XZZZ    -101.8083   YZZZ     120.6826   ZZZZ   -1579.4817
 -----------------------------------------------------------------
 Total job time:  9.42s(wall), 118.10s(cpu) 
 Thu May 26 10:29:13 2022

        *************************************************************
        *                                                           *
        *  Thank you very much for using Q-Chem.  Have a nice day.  *
        *                                                           *
        *************************************************************


