                  Welcome to Q-Chem
     A Quantum Leap Into The Future Of Chemistry


 Q-Chem 5.4 (devel), Q-Chem, Inc., Pleasanton, CA (2021)

 E. Epifanovsky,  A. T. B. Gilbert,  Xintian Feng,  Joonho Lee,  Yuezhi Mao,  
 N. Mardirossian,  P. Pokhilko,  A. White,  M. Wormit,  M. P. Coons,  
 A. L. Dempwolff,  Zhengting Gan,  D. Hait,  P. R. Horn,  L. D. Jacobson,  
 I. Kaliman,  J. Kussmann,  A. W. Lange,  Ka Un Lao,  D. S. Levine,  Jie Liu,  
 S. C. McKenzie,  A. F. Morrison,  K. Nanda,  F. Plasser,  D. R. Rehn,  
 M. L. Vidal,  Zhi-Qiang You,  Ying Zhu,  B. Alam,  B. Albrecht,  
 A. Aldossary,  E. Alguire,  J. H. Andersen,  D. Barton,  K. Begam,  A. Behn,  
 Y. A. Bernard,  E. J. Berquist,  H. Burton,  A. Carreras,  K. Carter-Fenk,  
 R. Chakraborty,  A. D. Chien,  K. D. Closser,  V. Cofer-Shabica,  
 S. Dasgupta,  Jia Deng,  M. de Wergifosse,  M. Diedenhofen,  Hainam Do,  
 S. Ehlert,  Po-Tung Fang,  S. Fatehi,  Qingguo Feng,  T. Friedhoff,  
 J. Gayvert,  Qinghui Ge,  G. Gidofalvi,  M. Goldey,  J. Gomes,  
 C. Gonzalez-Espinoza,  S. Gulania,  A. Gunina,  M. W. D. Hanson-Heine,  
 P. H. P. Harbach,  A. W. Hauser,  M. F. Herbst,  M. Hernandez Vera,  
 M. Hodecker,  Z. C. Holden,  S. Houck,  Xunkun Huang,  Kerwin Hui,  
 B. C. Huynh,  M. Ivanov,  Hyunjun Ji,  Hanjie Jiang,  B. Kaduk,  S. Kaehler,  
 K. Khistyaev,  Jaehoon Kim,  P. Klunzinger,  Z. Koczor-Benda,  
 Joong Hoon Koh,  D. Kosenkov,  L. Koulias,  T. Kowalczyk,  C. M. Krauter,  
 K. Kue,  A. Kunitsa,  T. Kus,  A. Landau,  K. V. Lawler,  D. Lefrancois,  
 S. Lehtola,  Rain Li,  Yi-Pei Li,  Jiashu Liang,  M. Liebenthal,  
 Hung-Hsuan Lin,  You-Sheng Lin,  Fenglai Liu,  Kuan-Yu Liu,  
 M. Loipersberger,  A. Luenser,  A. Manjanath,  P. Manohar,  E. Mansoor,  
 S. F. Manzer,  Shan-Ping Mao,  A. V. Marenich,  T. Markovich,  S. Mason,  
 S. A. Maurer,  P. F. McLaughlin,  M. F. S. J. Menger,  J.-M. Mewes,  
 S. A. Mewes,  P. Morgante,  J. W. Mullinax,  K. J. Oosterbaan,  G. Paran,  
 Alexander C. Paul,  Suranjan K. Paul,  F. Pavosevic,  Zheng Pei,  S. Prager,  
 E. I. Proynov,  E. Ramos,  B. Rana,  A. E. Rask,  A. Rettig,  R. M. Richard,  
 F. Rob,  E. Rossomme,  T. Scheele,  M. Scheurer,  M. Schneider,  
 N. Sergueev,  S. M. Sharada,  W. Skomorowski,  D. W. Small,  C. J. Stein,  
 Yu-Chuan Su,  E. J. Sundstrom,  Zhen Tao,  J. Thirman,  T. Tsuchimochi,  
 N. M. Tubman,  S. P. Veccham,  O. Vydrov,  J. Wenzel,  J. Witte,  A. Yamada,  
 Kun Yao,  S. Yeganeh,  S. R. Yost,  A. Zech,  Igor Ying Zhang,  Xing Zhang,  
 Yu Zhang,  D. Zuev,  A. Aspuru-Guzik,  A. T. Bell,  N. A. Besley,  
 K. B. Bravaya,  B. R. Brooks,  D. Casanova,  Jeng-Da Chai,  S. Coriani,  
 C. J. Cramer,  A. E. DePrince, III,  R. A. DiStasio Jr.,  A. Dreuw,  
 B. D. Dunietz,  T. R. Furlani,  W. A. Goddard III,  S. Grimme,  
 S. Hammes-Schiffer,  T. Head-Gordon,  W. J. Hehre,  Chao-Ping Hsu,  
 T.-C. Jagau,  Yousung Jung,  A. Klamt,  Jing Kong,  D. S. Lambrecht,  
 WanZhen Liang,  N. J. Mayhall,  C. W. McCurdy,  J. B. Neaton,  
 C. Ochsenfeld,  J. A. Parkhill,  R. Peverati,  V. A. Rassolov,  Yihan Shao,  
 L. V. Slipchenko,  T. Stauch,  R. P. Steele,  J. E. Subotnik,  
 A. J. W. Thom,  A. Tkatchenko,  D. G. Truhlar,  T. Van Voorhis,  
 T. A. Wesolowski,  K. B. Whaley,  H. L. Woodcock III,  P. M. Zimmerman,  
 S. Faraji,  P. M. W. Gill,  M. Head-Gordon,  J. M. Herbert,  A. I. Krylov

 Additional authors for Version 5.4.1: 
 S. Kotaru,  Shaozhi Li,  Xiangyuan Li,  F. Matz,  A. Molle,  Haisheng Ren,  
 Yingli Su,  Hung-Yi Tsai,  C. Utku,  Fang Wang

 Contributors to earlier versions of Q-Chem not listed above: 
 R. D. Adamson,  B. Austin,  R. Baer,  J. Baker,  G. J. O. Beran,  
 K. Brandhorst,  S. T. Brown,  E. F. C. Byrd,  A. K. Chakraborty,  
 G. K. L. Chan,  Chun-Min Chang,  Yunqing Chen,  C.-L. Cheng,  
 Siu Hung Chien,  D. M. Chipman,  D. L. Crittenden,  H. Dachsel,  
 R. J. Doerksen,  A. D. Dutoi,  R. G. Edgar,  J. Fosso-Tande,  
 L. Fusti-Molnar,  D. Ghosh,  A. Ghysels,  A. Golubeva-Zadorozhnaya,  
 J. Gonthier,  M. S. Gordon,  S. R. Gwaltney,  G. Hawkins,  J. E. Herr,  
 A. Heyden,  S. Hirata,  E. G. Hohenstein,  G. Kedziora,  F. J. Keil,  
 C. Kelley,  Jihan Kim,  R. A. King,  R. Z. Khaliullin,  P. P. Korambath,  
 W. Kurlancheek,  A. Laurent,  A. M. Lee,  M. S. Lee,  S. V. Levchenko,  
 Ching Yeh Lin,  D. Liotard,  E. Livshits,  R. C. Lochan,  I. Lotan,  
 L. A. Martinez-Martinez,  P. E. Maslen,  N. Nair,  D. P. O'Neill,  
 D. Neuhauser,  E. Neuscamman,  C. M. Oana,  R. Olivares-Amaya,  R. Olson,  
 T. M. Perrine,  B. Peters,  P. A. Pieniazek,  A. Prociuk,  Y. M. Rhee,  
 J. Ritchie,  M. A. Rohrdanz,  E. Rosta,  N. J. Russ,  H. F. Schaefer III,  
 M. W. Schmidt,  N. E. Schultz,  S. Sharma,  N. Shenvi,  C. D. Sherrill,  
 A. C. Simmonett,  A. Sodt,  T. Stein,  D. Stuck,  K. S. Thanthiriwatte,  
 V. Vanovschi,  L. Vogt,  Tao Wang,  A. Warshel,  M. A. Watson,  
 C. F. Williams,  Q. Wu,  X. Xu,  Jun Yang,  W. Zhang,  Yan Zhao

 Please cite Q-Chem as follows:
 Y. Shao et al., Mol. Phys. 113, 184-215 (2015)
 DOI: 10.1080/00268976.2014.952696

 Q-Chem 5.4.1 for Intel X86 EM64T Linux

 Parts of Q-Chem use Armadillo 9.800.1 (Horizon Scraper).
 http://arma.sourceforge.net/

 Q-Chem begins on Wed Jun 29 14:54:12 2022  

 Host: gadi-cpu-clx-0107.gadi.nci.org.au
0

     Scratch files written to /jobfs/48750518.gadi-pbs/qchem3665956//
 Processing $rem in /apps/qchem/5.4.1/config/preferences:
 Processing $rem in /home/561/yj5695/.qchemrc:
 Symmetry turned off for PCM/SM12/SMD calculation
 Method-specific promolecule density matrix will be built for SM12 calculation

 Checking the input file for inconsistencies... 	...done.

--------------------------------------------------------------
User input:
--------------------------------------------------------------
$molecule
-1  1
C -1.3864915805  0.7212503937 -1.016981444
C -2.5550592783  1.0426318095 -1.7032406457
H -3.471132811  1.2424573923 -1.1558142892
C -2.5316630325  1.1191789836 -3.0956394375
H -3.4397041338  1.379971859 -3.6351004631
C -1.355062019  0.8711018779 -3.8089542675
C -1.3502552133  0.8917936273 -5.3200292313
C -0.1924403814  0.5453471536 -3.0997238519
H  0.7308273797  0.3562641905 -3.6434834443
C -0.2019381157  0.4675161068 -1.7097099884
H  0.7080736529  0.2227231591 -1.1683826111
S -1.410802008  0.5380990347  0.7735158503
O -0.1183892365  1.1542402487  1.2083979628
O -2.6133900618  1.2893543832  1.2262647207
N -1.5798152465 -0.9700660745  1.1561674551
H -0.7027791443 -1.4489155703  0.9325173791
N -1.6167886412 -0.4160763978 -5.9382685173
H -2.1065359355  1.5949394955 -5.6793360866
H -0.3785592149  1.2416380147 -5.6794217619
H -2.5157887538 -0.7561205746 -5.5963358646
H -0.9249442247 -1.082154113 -5.5939144635
$end

$rem
jobtype sp
exchange M062X
basis 6-31+G*
SMX_GAS_PHASE = TRUE
solvent_method sm12
$end

$smx
solvent water
charges mk
$end
--------------------------------------------------------------
 ----------------------------------------------------------------
             Standard Nuclear Orientation (Angstroms)
    I     Atom           X                Y                Z
 ----------------------------------------------------------------
    1      C      -1.3864915805     0.7212503937    -1.0169814440
    2      C      -2.5550592783     1.0426318095    -1.7032406457
    3      H      -3.4711328110     1.2424573923    -1.1558142892
    4      C      -2.5316630325     1.1191789836    -3.0956394375
    5      H      -3.4397041338     1.3799718590    -3.6351004631
    6      C      -1.3550620190     0.8711018779    -3.8089542675
    7      C      -1.3502552133     0.8917936273    -5.3200292313
    8      C      -0.1924403814     0.5453471536    -3.0997238519
    9      H       0.7308273797     0.3562641905    -3.6434834443
   10      C      -0.2019381157     0.4675161068    -1.7097099884
   11      H       0.7080736529     0.2227231591    -1.1683826111
   12      S      -1.4108020080     0.5380990347     0.7735158503
   13      O      -0.1183892365     1.1542402487     1.2083979628
   14      O      -2.6133900618     1.2893543832     1.2262647207
   15      N      -1.5798152465    -0.9700660745     1.1561674551
   16      H      -0.7027791443    -1.4489155703     0.9325173791
   17      N      -1.6167886412    -0.4160763978    -5.9382685173
   18      H      -2.1065359355     1.5949394955    -5.6793360866
   19      H      -0.3785592149     1.2416380147    -5.6794217619
   20      H      -2.5157887538    -0.7561205746    -5.5963358646
   21      H      -0.9249442247    -1.0821541130    -5.5939144635
 ----------------------------------------------------------------
 Nuclear Repulsion Energy =         802.40276514 hartrees
 There are       49 alpha and       49 beta electrons
 Requested basis set is 6-31+G(d)
 There are 79 shells and 250 basis functions

 Total QAlloc Memory Limit   2000 MB
 Mega-Array Size       188 MB
 MEM_STATIC part       192 MB
 A cutoff of  1.0D-08 yielded   2463 shell pairs
 There are     26265 function pairs
 Smallest overlap matrix eigenvalue = 1.95E-06

 Q-Chem warning in module stvman/mkSTV.C, line 323:

 Overlap eigenvalue is smaller than square root of threshold
 Use THRESH >= 12 to get rid of this warning


 Scale SEOQF with 1.000000e-01/1.000000e-01/1.000000e-02

 Standard Electronic Orientation quadrupole field applied
 Nucleus-field energy     =     0.0000000060 hartrees
 ================ Generating on-the-fly Promolecule Density  ================
Attempting to make child job directory: /jobfs/48750518.gadi-pbs/qchem3665956//Frg1/
Attempting to make child job directory: /jobfs/48750518.gadi-pbs/qchem3665956//Frg2/
Attempting to make child job directory: /jobfs/48750518.gadi-pbs/qchem3665956//Frg3/
Attempting to make child job directory: /jobfs/48750518.gadi-pbs/qchem3665956//Frg4/
Attempting to make child job directory: /jobfs/48750518.gadi-pbs/qchem3665956//Frg5/
Creating input file /jobfs/48750518.gadi-pbs/qchem3665956/Frg1.input
using default PutDataFrgm: nothing
calling putenv with: QCSCRATCH=/jobfs/48750518.gadi-pbs/qchem3665956/ 
Spawning Job For Fragment 0
Done Job For Fragment 0
calling putenv with: QCSCRATCH=/jobfs/48750518.gadi-pbs 
calling putenv with: QCTHREADS=8 
Creating input file /jobfs/48750518.gadi-pbs/qchem3665956/Frg2.input
using default PutDataFrgm: nothing
calling putenv with: QCSCRATCH=/jobfs/48750518.gadi-pbs/qchem3665956/ 
Spawning Job For Fragment 1
Done Job For Fragment 1
calling putenv with: QCSCRATCH=/jobfs/48750518.gadi-pbs 
calling putenv with: QCTHREADS=8 
Creating input file /jobfs/48750518.gadi-pbs/qchem3665956/Frg3.input
using default PutDataFrgm: nothing
calling putenv with: QCSCRATCH=/jobfs/48750518.gadi-pbs/qchem3665956/ 
Spawning Job For Fragment 2
Done Job For Fragment 2
calling putenv with: QCSCRATCH=/jobfs/48750518.gadi-pbs 
calling putenv with: QCTHREADS=8 
Creating input file /jobfs/48750518.gadi-pbs/qchem3665956/Frg4.input
using default PutDataFrgm: nothing
calling putenv with: QCSCRATCH=/jobfs/48750518.gadi-pbs/qchem3665956/ 
Spawning Job For Fragment 3
Done Job For Fragment 3
calling putenv with: QCSCRATCH=/jobfs/48750518.gadi-pbs 
calling putenv with: QCTHREADS=8 
Creating input file /jobfs/48750518.gadi-pbs/qchem3665956/Frg5.input
using default PutDataFrgm: nothing
calling putenv with: QCSCRATCH=/jobfs/48750518.gadi-pbs/qchem3665956/ 
Spawning Job For Fragment 4
Done Job For Fragment 4
calling putenv with: QCSCRATCH=/jobfs/48750518.gadi-pbs 
calling putenv with: QCTHREADS=8 
 Time for running child jobs:  CPU 1.13 s  wall 2.10 s
 ============= Method Specific Promolecule Density Constructed =============
 Guess from superposition of atomic densities
 Warning:  Energy on first SCF cycle will be non-variational
 SAD guess density has 97.000000 electrons

 -----------------------------------------------------------------------
  General SCF calculation program by
  Eric Jon Sundstrom, Paul Horn, Yuezhi Mao, Dmitri Zuev, Alec White,
  David Stuck, Shaama M.S., Shane Yost, Joonho Lee, David Small,
  Daniel Levine, Susi Lehtola, Hugh Burton, Evgeny Epifanovsky,
  Bang C. Huynh
 -----------------------------------------------------------------------
 Exchange:     0.5400 Hartree-Fock + 1.0000 M06-2X
 Correlation:  1.0000 M06-2X
 Using SG-3 standard quadrature grid
 using 8 threads for integral computing
 -------------------------------------------------------
 OpenMP Integral computing Module                
 Release: version 1.0, May 2013, Q-Chem Inc. Pittsburgh 
 -------------------------------------------------------
 A restricted SCF calculation will be
 performed using DIIS
 SCF converges when DIIS error is below 1.0e-05
 ---------------------------------------
  Cycle       Energy         DIIS error
 ---------------------------------------
    1    -933.5311587343      4.78e-02  
    2    -929.7413343991      6.45e-03  
    3    -929.6492883973      7.97e-03  
    4    -930.0206153173      9.20e-04  
    5    -930.0258742623      4.21e-04  
    6    -930.0271681369      1.16e-04  
    7    -930.0272727483      2.89e-05  
    8    -930.0272804931      7.46e-06  Convergence criterion met
 ---------------------------------------
 SCF time:   CPU 76.09s  wall 9.00s 
 SCF   energy in the final basis set =     -930.0272804931
 Total energy in the final basis set =     -930.0272804931
 Exchange:     0.5400 Hartree-Fock + 1.0000 M06-2X
 Correlation:  1.0000 M06-2X
 Using SG-3 standard quadrature grid
 
 SM12 calculation using Merz-Singh-Kollman charges
 Citation of the SM12 model:
 Marenich, A.V.; Cramer, C.J.; Truhlar, D.G.
 J. Chem. Theory Comput. 2013, 9, 609-612.
 iSolventCode=           1
 Solvent: water                                                           
 
  Building new vdw surfaces
         Merz-Kollman ESP Net Atomic Charges

     Atom                 Charge (a.u.)
  ----------------------------------------
      1 C                    -0.045089
      2 C                    -0.137923
      3 H                     0.148696
      4 C                    -0.138620
      5 H                     0.127279
      6 C                    -0.212417
      7 C                     0.355756
      8 C                    -0.141103
      9 H                     0.129347
     10 C                    -0.129885
     11 H                     0.131267
     12 S                     1.118039
     13 O                    -0.687576
     14 O                    -0.630870
     15 N                    -0.984426
     16 H                     0.338918
     17 N                    -1.099174
     18 H                     0.026909
     19 H                     0.023180
     20 H                     0.407844
     21 H                     0.399849
  ----------------------------------------
  Sum of atomic charges =    -1.000000

  Related Dipole Moment =     9.3585 (X  7.9053 Y -3.1450 Z -3.8983)


 Charges (in A.U.) from Merz-Kollman fitting 
 -----------------------------------------------
 Center     Atomic                  MZ       
 Number     Number                  Charge
 -----------------------------------------------
    1          6                   -0.045089
    2          6                   -0.137923
    3          1                    0.148696
    4          6                   -0.138620
    5          1                    0.127279
    6          6                   -0.212417
    7          6                    0.355756
    8          6                   -0.141103
    9          1                    0.129347
   10          6                   -0.129885
   11          1                    0.131267
   12         16                    1.118039
   13          8                   -0.687576
   14          8                   -0.630870
   15          7                   -0.984426
   16          1                    0.338918
   17          7                   -1.099174
   18          1                    0.026909
   19          1                    0.023180
   20          1                    0.407844
   21          1                    0.399849
 -----------------------------------------------
 A restricted SCF calculation will be
 performed using Roothaan-Hall, DIIS
 SCF converges when DIIS error is below 1.0e-05
 ---------------------------------------
  Cycle       Energy         DIIS error
 ---------------------------------------
         Merz-Kollman ESP Net Atomic Charges

     Atom                 Charge (a.u.)
  ----------------------------------------
      1 C                    -0.073773
      2 C                    -0.174849
      3 H                     0.156441
      4 C                    -0.126340
      5 H                     0.153133
      6 C                    -0.165303
      7 C                     0.374308
      8 C                    -0.119073
      9 H                     0.154127
     10 C                    -0.163292
     11 H                     0.146054
     12 S                     1.148576
     13 O                    -0.726365
     14 O                    -0.678766
     15 N                    -1.044946
     16 H                     0.367009
     17 N                    -1.108089
     18 H                     0.030342
     19 H                     0.026667
     20 H                     0.416310
     21 H                     0.407829
  ----------------------------------------
  Sum of atomic charges =    -1.000000

  Related Dipole Moment =    11.2808 (X  8.2374 Y -3.1818 Z -7.0199)


 Charges (in A.U.) from Merz-Kollman fitting 
 -----------------------------------------------
 Center     Atomic                  MZ       
 Number     Number                  Charge
 -----------------------------------------------
    1          6                   -0.073773
    2          6                   -0.174849
    3          1                    0.156441
    4          6                   -0.126340
    5          1                    0.153133
    6          6                   -0.165303
    7          6                    0.374308
    8          6                   -0.119073
    9          1                    0.154127
   10          6                   -0.163292
   11          1                    0.146054
   12         16                    1.148576
   13          8                   -0.726365
   14          8                   -0.678766
   15          7                   -1.044946
   16          1                    0.367009
   17          7                   -1.108089
   18          1                    0.030342
   19          1                    0.026667
   20          1                    0.416310
   21          1                    0.407829
 -----------------------------------------------
    1    -930.0272800416      6.24e-04  Roothaan Step
 ---------------------------------------
  Cycle       Energy         DIIS error
 ---------------------------------------
         Merz-Kollman ESP Net Atomic Charges

     Atom                 Charge (a.u.)
  ----------------------------------------
      1 C                    -0.021350
      2 C                    -0.154331
      3 H                     0.151684
      4 C                    -0.159284
      5 H                     0.166095
      6 C                    -0.185796
      7 C                     0.324423
      8 C                    -0.153403
      9 H                     0.168247
     10 C                    -0.157255
     11 H                     0.144504
     12 S                     1.180341
     13 O                    -0.745685
     14 O                    -0.689228
     15 N                    -1.057732
     16 H                     0.356348
     17 N                    -1.077366
     18 H                     0.047907
     19 H                     0.044146
     20 H                     0.413630
     21 H                     0.404106
  ----------------------------------------
  Sum of atomic charges =    -1.000000

  Related Dipole Moment =    11.2170 (X  8.0902 Y -3.1198 Z -7.1158)


 Charges (in A.U.) from Merz-Kollman fitting 
 -----------------------------------------------
 Center     Atomic                  MZ       
 Number     Number                  Charge
 -----------------------------------------------
    1          6                   -0.021350
    2          6                   -0.154331
    3          1                    0.151684
    4          6                   -0.159284
    5          1                    0.166095
    6          6                   -0.185796
    7          6                    0.324423
    8          6                   -0.153403
    9          1                    0.168247
   10          6                   -0.157255
   11          1                    0.144504
   12         16                    1.180341
   13          8                   -0.745685
   14          8                   -0.689228
   15          7                   -1.057732
   16          1                    0.356348
   17          7                   -1.077366
   18          1                    0.047907
   19          1                    0.044146
   20          1                    0.413630
   21          1                    0.404106
 -----------------------------------------------
    1    -930.0171924759      3.81e-04  
         Merz-Kollman ESP Net Atomic Charges

     Atom                 Charge (a.u.)
  ----------------------------------------
      1 C                    -0.065157
      2 C                    -0.161475
      3 H                     0.153499
      4 C                    -0.148516
      5 H                     0.163426
      6 C                    -0.154978
      7 C                     0.338318
      8 C                    -0.140860
      9 H                     0.165018
     10 C                    -0.156451
     11 H                     0.145142
     12 S                     1.187631
     13 O                    -0.745097
     14 O                    -0.693974
     15 N                    -1.064537
     16 H                     0.362213
     17 N                    -1.086429
     18 H                     0.042515
     19 H                     0.038970
     20 H                     0.414966
     21 H                     0.405775
  ----------------------------------------
  Sum of atomic charges =    -1.000000

  Related Dipole Moment =    11.5828 (X  8.1927 Y -3.1220 Z -7.5693)


 Charges (in A.U.) from Merz-Kollman fitting 
 -----------------------------------------------
 Center     Atomic                  MZ       
 Number     Number                  Charge
 -----------------------------------------------
    1          6                   -0.065157
    2          6                   -0.161475
    3          1                    0.153499
    4          6                   -0.148516
    5          1                    0.163426
    6          6                   -0.154978
    7          6                    0.338318
    8          6                   -0.140860
    9          1                    0.165018
   10          6                   -0.156451
   11          1                    0.145142
   12         16                    1.187631
   13          8                   -0.745097
   14          8                   -0.693974
   15          7                   -1.064537
   16          1                    0.362213
   17          7                   -1.086429
   18          1                    0.042515
   19          1                    0.038970
   20          1                    0.414966
   21          1                    0.405775
 -----------------------------------------------
    2    -930.0167689117      3.62e-04  
         Merz-Kollman ESP Net Atomic Charges

     Atom                 Charge (a.u.)
  ----------------------------------------
      1 C                    -0.059667
      2 C                    -0.157639
      3 H                     0.152943
      4 C                    -0.152068
      5 H                     0.165625
      6 C                    -0.158923
      7 C                     0.334541
      8 C                    -0.145134
      9 H                     0.167475
     10 C                    -0.153806
     11 H                     0.145088
     12 S                     1.188308
     13 O                    -0.748753
     14 O                    -0.695440
     15 N                    -1.068671
     16 H                     0.362692
     17 N                    -1.081667
     18 H                     0.044428
     19 H                     0.040903
     20 H                     0.414537
     21 H                     0.405229
  ----------------------------------------
  Sum of atomic charges =    -1.000000

  Related Dipole Moment =    11.6603 (X  8.1787 Y -3.1161 Z -7.7047)


 Charges (in A.U.) from Merz-Kollman fitting 
 -----------------------------------------------
 Center     Atomic                  MZ       
 Number     Number                  Charge
 -----------------------------------------------
    1          6                   -0.059667
    2          6                   -0.157639
    3          1                    0.152943
    4          6                   -0.152068
    5          1                    0.165625
    6          6                   -0.158923
    7          6                    0.334541
    8          6                   -0.145134
    9          1                    0.167475
   10          6                   -0.153806
   11          1                    0.145088
   12         16                    1.188308
   13          8                   -0.748753
   14          8                   -0.695440
   15          7                   -1.068671
   16          1                    0.362692
   17          7                   -1.081667
   18          1                    0.044428
   19          1                    0.040903
   20          1                    0.414537
   21          1                    0.405229
 -----------------------------------------------
    3    -930.0150754557      6.39e-05  
         Merz-Kollman ESP Net Atomic Charges

     Atom                 Charge (a.u.)
  ----------------------------------------
      1 C                    -0.065370
      2 C                    -0.156562
      3 H                     0.152881
      4 C                    -0.153860
      5 H                     0.166010
      6 C                    -0.153198
      7 C                     0.331759
      8 C                    -0.146694
      9 H                     0.167837
     10 C                    -0.152392
     11 H                     0.144945
     12 S                     1.191965
     13 O                    -0.748796
     14 O                    -0.696450
     15 N                    -1.069617
     16 H                     0.362133
     17 N                    -1.080753
     18 H                     0.044984
     19 H                     0.041505
     20 H                     0.414491
     21 H                     0.405183
  ----------------------------------------
  Sum of atomic charges =    -1.000000

  Related Dipole Moment =    11.6921 (X  8.1855 Y -3.1086 Z -7.7486)


 Charges (in A.U.) from Merz-Kollman fitting 
 -----------------------------------------------
 Center     Atomic                  MZ       
 Number     Number                  Charge
 -----------------------------------------------
    1          6                   -0.065370
    2          6                   -0.156562
    3          1                    0.152881
    4          6                   -0.153860
    5          1                    0.166010
    6          6                   -0.153198
    7          6                    0.331759
    8          6                   -0.146694
    9          1                    0.167837
   10          6                   -0.152392
   11          1                    0.144945
   12         16                    1.191965
   13          8                   -0.748796
   14          8                   -0.696450
   15          7                   -1.069617
   16          1                    0.362133
   17          7                   -1.080753
   18          1                    0.044984
   19          1                    0.041505
   20          1                    0.414491
   21          1                    0.405183
 -----------------------------------------------
    4    -930.0142533769      3.54e-05  
    5    -930.0140189884      7.25e-06  Convergence criterion met
 ---------------------------------------
 SCF time:   CPU 68.26s  wall 9.00s 
(0)  E-EN(g) gas-phase elect-nuc energy                 -930.027280493 a.u.
(1)  E-EN(liq) elect-nuc energy of solute               -930.014018988 a.u.
(2)  G-P(liq) polarization free energy of solvation           -82.7249 kcal/mol
(3)  G-ENP(liq) elect-nuc-pol free energy of system     -930.145849539 a.u.
(4)  G-CDS(liq) cavity-dispersion-solvent structure 
     free energy                                                1.7360 kcal/mol
(5)  G-P-CDS(liq) = G-P(liq) + G-CDS(liq) = (2) + (4)         -80.9889 kcal/mol
(6)  G-S(liq) free energy of system = (1) + (5)         -930.143082989 a.u.
(7)  DeltaE-EN(liq) elect-nuc reorganization
     energy of solute molecule (7) = (1) - (0)                  8.3217 kcal/mol
(8)  DeltaG-ENP(liq) elect-nuc-pol free energy
     of solvation (8) = (3) - (0)                             -74.4032 kcal/mol
(9)  DeltaG-S(liq) free energy of  solvation
     (9) = (6) - (0)                                          -72.6672 kcal/mol
 SCF   energy in the final basis set =     -930.1430829886
 Total energy in the final basis set =     -930.1430829886
 
 --------------------------------------------------------------
 
                    Orbital Energies (a.u.)
 --------------------------------------------------------------
 
 Alpha MOs
 -- Occupied --
-90.1370 -19.6265 -19.6260 -14.7543 -14.7300 -10.5882 -10.5834 -10.5768
-10.5750 -10.5741 -10.5715 -10.5711  -8.4502  -6.3727  -6.3720  -6.3713
 -1.2133  -1.0986  -1.0084  -0.9795  -0.9679  -0.8767  -0.8634  -0.7769
 -0.7125  -0.7115  -0.6648  -0.6152  -0.5821  -0.5683  -0.5497  -0.5419
 -0.5281  -0.5189  -0.5056  -0.4997  -0.4612  -0.4478  -0.4419  -0.4268
 -0.4129  -0.4002  -0.3820  -0.3684  -0.3436  -0.3349  -0.3259  -0.3159
 -0.2927
 -- Virtual --
 -0.0268  -0.0146  -0.0082  -0.0034  -0.0003   0.0004   0.0151   0.0171
  0.0233   0.0267   0.0472   0.0478   0.0671   0.0759   0.0794   0.0821
  0.0852   0.0915   0.0969   0.1114   0.1201   0.1237   0.1268   0.1343
  0.1404   0.1450   0.1498   0.1524   0.1637   0.1659   0.1744   0.1831
  0.1878   0.1893   0.1931   0.1971   0.2046   0.2117   0.2140   0.2191
  0.2316   0.2368   0.2388   0.2509   0.2565   0.2609   0.2641   0.2708
  0.2752   0.2790   0.2840   0.2938   0.2970   0.3058   0.3089   0.3129
  0.3169   0.3257   0.3311   0.3436   0.3604   0.3733   0.3798   0.3968
  0.4098   0.4155   0.4248   0.4295   0.4529   0.4658   0.5569   0.5849
  0.6056   0.6423   0.6575   0.6913   0.7099   0.7145   0.7255   0.7299
  0.7334   0.7560   0.7606   0.7835   0.8011   0.8056   0.8095   0.8119
  0.8430   0.8796   0.9010   0.9039   0.9383   0.9586   0.9695   0.9801
  0.9955   1.0045   1.0255   1.0368   1.0468   1.0487   1.0578   1.0717
  1.0841   1.1079   1.1121   1.1262   1.1441   1.1622   1.1766   1.1870
  1.1981   1.2102   1.2139   1.2310   1.2484   1.2817   1.2930   1.3161
  1.3412   1.3618   1.3747   1.3838   1.3909   1.4033   1.4168   1.4182
  1.4426   1.4926   1.4994   1.5164   1.5277   1.5402   1.5501   1.6201
  1.6597   1.6894   1.7407   1.7693   1.7758   1.8120   1.8286   1.8439
  1.8506   1.8607   1.8873   1.9076   1.9150   1.9282   1.9668   2.0017
  2.0157   2.0430   2.0495   2.0698   2.1088   2.1127   2.1460   2.1637
  2.1688   2.1742   2.2014   2.2243   2.2664   2.2785   2.3044   2.3062
  2.3251   2.3379   2.3972   2.4170   2.4231   2.5117   2.5592   2.6014
  2.6359   2.6617   2.6801   2.7412   2.7760   2.7893   2.8042   2.8336
  2.8796   2.9293   2.9591   3.0784   3.3787   3.9716   3.9958   4.0978
  4.2378   4.2545   4.2765   4.2847   4.3440   4.4121   4.4338   4.5154
  4.7326
 --------------------------------------------------------------
 
          Ground-State Mulliken Net Atomic Charges

     Atom                 Charge (a.u.)
  ----------------------------------------
      1 C                    -4.234373
      2 C                    -2.028632
      3 H                     0.246106
      4 C                     1.268370
      5 H                     0.278895
      6 C                     1.418789
      7 C                     1.567128
      8 C                     1.488521
      9 H                     0.283845
     10 C                    -0.028340
     11 H                     0.248841
     12 S                     0.362432
     13 O                    -0.769599
     14 O                    -0.891612
     15 N                    -0.971610
     16 H                     0.399224
     17 N                    -0.984062
     18 H                     0.234589
     19 H                     0.237242
     20 H                     0.437895
     21 H                     0.436348
  ----------------------------------------
  Sum of atomic charges =    -1.000000

         Merz-Kollman ESP Net Atomic Charges

     Atom                 Charge (a.u.)
  ----------------------------------------
      1 C                    -0.065319
      2 C                    -0.156269
      3 H                     0.152823
      4 C                    -0.154271
      5 H                     0.166026
      6 C                    -0.152707
      7 C                     0.331202
      8 C                    -0.147149
      9 H                     0.167858
     10 C                    -0.152052
     11 H                     0.144871
     12 S                     1.193975
     13 O                    -0.749655
     14 O                    -0.696939
     15 N                    -1.070375
     16 H                     0.362059
     17 N                    -1.080437
     18 H                     0.045108
     19 H                     0.041634
     20 H                     0.414465
     21 H                     0.405151
  ----------------------------------------
  Sum of atomic charges =    -1.000000

  Related Dipole Moment =    11.6944 (X  8.1831 Y -3.1074 Z -7.7550)

 -----------------------------------------------------------------
                    Cartesian Multipole Moments
 -----------------------------------------------------------------
    Charge (ESU x 10^10)
                -4.8032
    Dipole Moment (Debye)
         X       8.2004      Y      -3.1185      Z      -7.7003
       Tot      11.6732
    Quadrupole Moments (Debye-Ang)
        XX     -96.7614     XY      -0.4991     YY     -91.5733
        XZ      12.0015     YZ      -5.8883     ZZ    -105.1579
    Octopole Moments (Debye-Ang^2)
       XXX     371.7762    XXY     -46.3893    XYY     130.3639
       YYY    -152.5616    XXZ      73.1844    XYZ      10.6874
       YYZ     110.1421    XZZ     153.8360    YZZ     -34.4440
       ZZZ     518.1593
    Hexadecapole Moments (Debye-Ang^3)
      XXXX   -1477.2698   XXXY     217.1192   XXYY    -357.8634
      XYYY     230.3586   YYYY    -511.5862   XXXZ    -362.3282
      XXYZ      29.4485   XYYZ    -142.9667   YYYZ     215.1973
      XXZZ    -947.5149   XYZZ      36.7997   YYZZ    -785.5790
      XZZZ    -777.3133   YZZZ      78.0466   ZZZZ   -5837.7074
 -----------------------------------------------------------------
 Total job time:  20.75s(wall), 148.78s(cpu) 
 Wed Jun 29 14:54:33 2022

        *************************************************************
        *                                                           *
        *  Thank you very much for using Q-Chem.  Have a nice day.  *
        *                                                           *
        *************************************************************


