                  Welcome to Q-Chem
     A Quantum Leap Into The Future Of Chemistry


 Q-Chem 5.4 (devel), Q-Chem, Inc., Pleasanton, CA (2021)

 E. Epifanovsky,  A. T. B. Gilbert,  Xintian Feng,  Joonho Lee,  Yuezhi Mao,  
 N. Mardirossian,  P. Pokhilko,  A. White,  M. Wormit,  M. P. Coons,  
 A. L. Dempwolff,  Zhengting Gan,  D. Hait,  P. R. Horn,  L. D. Jacobson,  
 I. Kaliman,  J. Kussmann,  A. W. Lange,  Ka Un Lao,  D. S. Levine,  Jie Liu,  
 S. C. McKenzie,  A. F. Morrison,  K. Nanda,  F. Plasser,  D. R. Rehn,  
 M. L. Vidal,  Zhi-Qiang You,  Ying Zhu,  B. Alam,  B. Albrecht,  
 A. Aldossary,  E. Alguire,  J. H. Andersen,  D. Barton,  K. Begam,  A. Behn,  
 Y. A. Bernard,  E. J. Berquist,  H. Burton,  A. Carreras,  K. Carter-Fenk,  
 R. Chakraborty,  A. D. Chien,  K. D. Closser,  V. Cofer-Shabica,  
 S. Dasgupta,  Jia Deng,  M. de Wergifosse,  M. Diedenhofen,  Hainam Do,  
 S. Ehlert,  Po-Tung Fang,  S. Fatehi,  Qingguo Feng,  T. Friedhoff,  
 J. Gayvert,  Qinghui Ge,  G. Gidofalvi,  M. Goldey,  J. Gomes,  
 C. Gonzalez-Espinoza,  S. Gulania,  A. Gunina,  M. W. D. Hanson-Heine,  
 P. H. P. Harbach,  A. W. Hauser,  M. F. Herbst,  M. Hernandez Vera,  
 M. Hodecker,  Z. C. Holden,  S. Houck,  Xunkun Huang,  Kerwin Hui,  
 B. C. Huynh,  M. Ivanov,  Hyunjun Ji,  Hanjie Jiang,  B. Kaduk,  S. Kaehler,  
 K. Khistyaev,  Jaehoon Kim,  P. Klunzinger,  Z. Koczor-Benda,  
 Joong Hoon Koh,  D. Kosenkov,  L. Koulias,  T. Kowalczyk,  C. M. Krauter,  
 K. Kue,  A. Kunitsa,  T. Kus,  A. Landau,  K. V. Lawler,  D. Lefrancois,  
 S. Lehtola,  Rain Li,  Yi-Pei Li,  Jiashu Liang,  M. Liebenthal,  
 Hung-Hsuan Lin,  You-Sheng Lin,  Fenglai Liu,  Kuan-Yu Liu,  
 M. Loipersberger,  A. Luenser,  A. Manjanath,  P. Manohar,  E. Mansoor,  
 S. F. Manzer,  Shan-Ping Mao,  A. V. Marenich,  T. Markovich,  S. Mason,  
 S. A. Maurer,  P. F. McLaughlin,  M. F. S. J. Menger,  J.-M. Mewes,  
 S. A. Mewes,  P. Morgante,  J. W. Mullinax,  K. J. Oosterbaan,  G. Paran,  
 Alexander C. Paul,  Suranjan K. Paul,  F. Pavosevic,  Zheng Pei,  S. Prager,  
 E. I. Proynov,  E. Ramos,  B. Rana,  A. E. Rask,  A. Rettig,  R. M. Richard,  
 F. Rob,  E. Rossomme,  T. Scheele,  M. Scheurer,  M. Schneider,  
 N. Sergueev,  S. M. Sharada,  W. Skomorowski,  D. W. Small,  C. J. Stein,  
 Yu-Chuan Su,  E. J. Sundstrom,  Zhen Tao,  J. Thirman,  T. Tsuchimochi,  
 N. M. Tubman,  S. P. Veccham,  O. Vydrov,  J. Wenzel,  J. Witte,  A. Yamada,  
 Kun Yao,  S. Yeganeh,  S. R. Yost,  A. Zech,  Igor Ying Zhang,  Xing Zhang,  
 Yu Zhang,  D. Zuev,  A. Aspuru-Guzik,  A. T. Bell,  N. A. Besley,  
 K. B. Bravaya,  B. R. Brooks,  D. Casanova,  Jeng-Da Chai,  S. Coriani,  
 C. J. Cramer,  A. E. DePrince, III,  R. A. DiStasio Jr.,  A. Dreuw,  
 B. D. Dunietz,  T. R. Furlani,  W. A. Goddard III,  S. Grimme,  
 S. Hammes-Schiffer,  T. Head-Gordon,  W. J. Hehre,  Chao-Ping Hsu,  
 T.-C. Jagau,  Yousung Jung,  A. Klamt,  Jing Kong,  D. S. Lambrecht,  
 WanZhen Liang,  N. J. Mayhall,  C. W. McCurdy,  J. B. Neaton,  
 C. Ochsenfeld,  J. A. Parkhill,  R. Peverati,  V. A. Rassolov,  Yihan Shao,  
 L. V. Slipchenko,  T. Stauch,  R. P. Steele,  J. E. Subotnik,  
 A. J. W. Thom,  A. Tkatchenko,  D. G. Truhlar,  T. Van Voorhis,  
 T. A. Wesolowski,  K. B. Whaley,  H. L. Woodcock III,  P. M. Zimmerman,  
 S. Faraji,  P. M. W. Gill,  M. Head-Gordon,  J. M. Herbert,  A. I. Krylov

 Additional authors for Version 5.4.1: 
 S. Kotaru,  Shaozhi Li,  Xiangyuan Li,  F. Matz,  A. Molle,  Haisheng Ren,  
 Yingli Su,  Hung-Yi Tsai,  C. Utku,  Fang Wang

 Contributors to earlier versions of Q-Chem not listed above: 
 R. D. Adamson,  B. Austin,  R. Baer,  J. Baker,  G. J. O. Beran,  
 K. Brandhorst,  S. T. Brown,  E. F. C. Byrd,  A. K. Chakraborty,  
 G. K. L. Chan,  Chun-Min Chang,  Yunqing Chen,  C.-L. Cheng,  
 Siu Hung Chien,  D. M. Chipman,  D. L. Crittenden,  H. Dachsel,  
 R. J. Doerksen,  A. D. Dutoi,  R. G. Edgar,  J. Fosso-Tande,  
 L. Fusti-Molnar,  D. Ghosh,  A. Ghysels,  A. Golubeva-Zadorozhnaya,  
 J. Gonthier,  M. S. Gordon,  S. R. Gwaltney,  G. Hawkins,  J. E. Herr,  
 A. Heyden,  S. Hirata,  E. G. Hohenstein,  G. Kedziora,  F. J. Keil,  
 C. Kelley,  Jihan Kim,  R. A. King,  R. Z. Khaliullin,  P. P. Korambath,  
 W. Kurlancheek,  A. Laurent,  A. M. Lee,  M. S. Lee,  S. V. Levchenko,  
 Ching Yeh Lin,  D. Liotard,  E. Livshits,  R. C. Lochan,  I. Lotan,  
 L. A. Martinez-Martinez,  P. E. Maslen,  N. Nair,  D. P. O'Neill,  
 D. Neuhauser,  E. Neuscamman,  C. M. Oana,  R. Olivares-Amaya,  R. Olson,  
 T. M. Perrine,  B. Peters,  P. A. Pieniazek,  A. Prociuk,  Y. M. Rhee,  
 J. Ritchie,  M. A. Rohrdanz,  E. Rosta,  N. J. Russ,  H. F. Schaefer III,  
 M. W. Schmidt,  N. E. Schultz,  S. Sharma,  N. Shenvi,  C. D. Sherrill,  
 A. C. Simmonett,  A. Sodt,  T. Stein,  D. Stuck,  K. S. Thanthiriwatte,  
 V. Vanovschi,  L. Vogt,  Tao Wang,  A. Warshel,  M. A. Watson,  
 C. F. Williams,  Q. Wu,  X. Xu,  Jun Yang,  W. Zhang,  Yan Zhao

 Please cite Q-Chem as follows:
 Y. Shao et al., Mol. Phys. 113, 184-215 (2015)
 DOI: 10.1080/00268976.2014.952696

 Q-Chem 5.4.1 for Intel X86 EM64T Linux

 Parts of Q-Chem use Armadillo 9.800.1 (Horizon Scraper).
 http://arma.sourceforge.net/

 Q-Chem begins on Wed Jun 29 14:54:12 2022  

 Host: gadi-cpu-clx-2806.gadi.nci.org.au
0

     Scratch files written to /jobfs/48751760.gadi-pbs/qchem4126799//
 Processing $rem in /apps/qchem/5.4.1/config/preferences:
 Processing $rem in /home/561/yj5695/.qchemrc:
 Symmetry turned off for PCM/SM12/SMD calculation
 Method-specific promolecule density matrix will be built for SM12 calculation

 Checking the input file for inconsistencies... 	...done.

--------------------------------------------------------------
User input:
--------------------------------------------------------------
$molecule
-1  1
C -1.3527993382  0.5418426473 -1.0120556368
C -2.5225286506  0.433380946 -1.7684345908
H -3.4868811576  0.3337566338 -1.2777909542
C -2.4418796026  0.4466793975 -3.1542198395
H -3.343237435  0.3588141989 -3.7525884712
C -1.1991188872  0.5727646315 -3.7903787146
C -1.1466004838  0.5861445183 -5.285854184
C -0.0372181575  0.6834495554 -3.0201044296
H  0.9342792556  0.7779050756 -3.4947132561
C -0.111741024  0.669195153 -1.6281594597
H  0.7899150207  0.7506265226 -1.0300587543
S -1.4846652394  0.6080382882  0.7859806905
O -2.4534068633 -0.4856678819  1.1012952773
O -0.1075466584  0.3540847366  1.2846684027
N -1.9369435082  2.0380613476  1.22381163
H -2.9237023001  2.1465689592  0.9728538489
O -2.1769905685  0.4572794999 -5.9384714702
C  0.1816037016  0.7615638205 -5.9663436804
H  0.8597339837 -0.0521952417 -5.6882460111
H  0.6480202301  1.7015532234 -5.6533939982
H  0.0370746827  0.7643559681 -7.0473553988
$end

$rem
jobtype sp
exchange M062X
basis 6-31+G*
SMX_GAS_PHASE = TRUE
solvent_method sm12
$end

$smx
solvent water
charges mk
$end
--------------------------------------------------------------
 ----------------------------------------------------------------
             Standard Nuclear Orientation (Angstroms)
    I     Atom           X                Y                Z
 ----------------------------------------------------------------
    1      C      -1.3527993382     0.5418426473    -1.0120556368
    2      C      -2.5225286506     0.4333809460    -1.7684345908
    3      H      -3.4868811576     0.3337566338    -1.2777909542
    4      C      -2.4418796026     0.4466793975    -3.1542198395
    5      H      -3.3432374350     0.3588141989    -3.7525884712
    6      C      -1.1991188872     0.5727646315    -3.7903787146
    7      C      -1.1466004838     0.5861445183    -5.2858541840
    8      C      -0.0372181575     0.6834495554    -3.0201044296
    9      H       0.9342792556     0.7779050756    -3.4947132561
   10      C      -0.1117410240     0.6691951530    -1.6281594597
   11      H       0.7899150207     0.7506265226    -1.0300587543
   12      S      -1.4846652394     0.6080382882     0.7859806905
   13      O      -2.4534068633    -0.4856678819     1.1012952773
   14      O      -0.1075466584     0.3540847366     1.2846684027
   15      N      -1.9369435082     2.0380613476     1.2238116300
   16      H      -2.9237023001     2.1465689592     0.9728538489
   17      O      -2.1769905685     0.4572794999    -5.9384714702
   18      C       0.1816037016     0.7615638205    -5.9663436804
   19      H       0.8597339837    -0.0521952417    -5.6882460111
   20      H       0.6480202301     1.7015532234    -5.6533939982
   21      H       0.0370746827     0.7643559681    -7.0473553988
 ----------------------------------------------------------------
 Nuclear Repulsion Energy =         879.14281449 hartrees
 There are       52 alpha and       52 beta electrons
 Requested basis set is 6-31+G(d)
 There are 82 shells and 267 basis functions

 Total QAlloc Memory Limit   2000 MB
 Mega-Array Size       188 MB
 MEM_STATIC part       192 MB
 A cutoff of  1.0D-08 yielded   2586 shell pairs
 There are     29168 function pairs
 Smallest overlap matrix eigenvalue = 1.20E-06

 Q-Chem warning in module stvman/mkSTV.C, line 323:

 Overlap eigenvalue is smaller than square root of threshold
 Use THRESH >= 12 to get rid of this warning


 Scale SEOQF with 1.000000e-01/1.000000e-01/1.000000e-02

 Standard Electronic Orientation quadrupole field applied
 Nucleus-field energy     =     0.0000000032 hartrees
 ================ Generating on-the-fly Promolecule Density  ================
Attempting to make child job directory: /jobfs/48751760.gadi-pbs/qchem4126799//Frg1/
Attempting to make child job directory: /jobfs/48751760.gadi-pbs/qchem4126799//Frg2/
Attempting to make child job directory: /jobfs/48751760.gadi-pbs/qchem4126799//Frg3/
Attempting to make child job directory: /jobfs/48751760.gadi-pbs/qchem4126799//Frg4/
Attempting to make child job directory: /jobfs/48751760.gadi-pbs/qchem4126799//Frg5/
Creating input file /jobfs/48751760.gadi-pbs/qchem4126799/Frg1.input
using default PutDataFrgm: nothing
calling putenv with: QCSCRATCH=/jobfs/48751760.gadi-pbs/qchem4126799/ 
Spawning Job For Fragment 0
Done Job For Fragment 0
calling putenv with: QCSCRATCH=/jobfs/48751760.gadi-pbs 
calling putenv with: QCTHREADS=8 
Creating input file /jobfs/48751760.gadi-pbs/qchem4126799/Frg2.input
using default PutDataFrgm: nothing
calling putenv with: QCSCRATCH=/jobfs/48751760.gadi-pbs/qchem4126799/ 
Spawning Job For Fragment 1
Done Job For Fragment 1
calling putenv with: QCSCRATCH=/jobfs/48751760.gadi-pbs 
calling putenv with: QCTHREADS=8 
Creating input file /jobfs/48751760.gadi-pbs/qchem4126799/Frg3.input
using default PutDataFrgm: nothing
calling putenv with: QCSCRATCH=/jobfs/48751760.gadi-pbs/qchem4126799/ 
Spawning Job For Fragment 2
Done Job For Fragment 2
calling putenv with: QCSCRATCH=/jobfs/48751760.gadi-pbs 
calling putenv with: QCTHREADS=8 
Creating input file /jobfs/48751760.gadi-pbs/qchem4126799/Frg4.input
using default PutDataFrgm: nothing
calling putenv with: QCSCRATCH=/jobfs/48751760.gadi-pbs/qchem4126799/ 
Spawning Job For Fragment 3
Done Job For Fragment 3
calling putenv with: QCSCRATCH=/jobfs/48751760.gadi-pbs 
calling putenv with: QCTHREADS=8 
Creating input file /jobfs/48751760.gadi-pbs/qchem4126799/Frg5.input
using default PutDataFrgm: nothing
calling putenv with: QCSCRATCH=/jobfs/48751760.gadi-pbs/qchem4126799/ 
Spawning Job For Fragment 4
Done Job For Fragment 4
calling putenv with: QCSCRATCH=/jobfs/48751760.gadi-pbs 
calling putenv with: QCTHREADS=8 
 Time for running child jobs:  CPU 1.01 s  wall 2.08 s
 ============= Method Specific Promolecule Density Constructed =============
 Guess from superposition of atomic densities
 Warning:  Energy on first SCF cycle will be non-variational
 SAD guess density has 103.000000 electrons

 -----------------------------------------------------------------------
  General SCF calculation program by
  Eric Jon Sundstrom, Paul Horn, Yuezhi Mao, Dmitri Zuev, Alec White,
  David Stuck, Shaama M.S., Shane Yost, Joonho Lee, David Small,
  Daniel Levine, Susi Lehtola, Hugh Burton, Evgeny Epifanovsky,
  Bang C. Huynh
 -----------------------------------------------------------------------
 Exchange:     0.5400 Hartree-Fock + 1.0000 M06-2X
 Correlation:  1.0000 M06-2X
 Using SG-3 standard quadrature grid
 using 8 threads for integral computing
 -------------------------------------------------------
 OpenMP Integral computing Module                
 Release: version 1.0, May 2013, Q-Chem Inc. Pittsburgh 
 -------------------------------------------------------
 A restricted SCF calculation will be
 performed using DIIS
 SCF converges when DIIS error is below 1.0e-05
 ---------------------------------------
  Cycle       Energy         DIIS error
 ---------------------------------------
    1    -991.7274078819      4.60e-02  
    2    -987.6729183743      6.51e-03  
    3    -987.4879472968      8.74e-03  
    4    -987.9923543499      9.97e-04  
    5    -987.9996651175      4.46e-04  
    6    -988.0011124836      1.14e-04  
    7    -988.0012221014      3.69e-05  
    8    -988.0012324309      1.32e-05  
    9    -988.0012338748      6.29e-06  Convergence criterion met
 ---------------------------------------
 SCF time:   CPU 99.40s  wall 12.00s 
 SCF   energy in the final basis set =     -988.0012338748
 Total energy in the final basis set =     -988.0012338748
 Exchange:     0.5400 Hartree-Fock + 1.0000 M06-2X
 Correlation:  1.0000 M06-2X
 Using SG-3 standard quadrature grid
 
 SM12 calculation using Merz-Singh-Kollman charges
 Citation of the SM12 model:
 Marenich, A.V.; Cramer, C.J.; Truhlar, D.G.
 J. Chem. Theory Comput. 2013, 9, 609-612.
 iSolventCode=           1
 Solvent: water                                                           
 
  Building new vdw surfaces
         Merz-Kollman ESP Net Atomic Charges

     Atom                 Charge (a.u.)
  ----------------------------------------
      1 C                    -0.129924
      2 C                    -0.057326
      3 H                     0.123836
      4 C                    -0.182858
      5 H                     0.142875
      6 C                    -0.068570
      7 C                     0.679754
      8 C                    -0.189198
      9 H                     0.125298
     10 C                    -0.090721
     11 H                     0.148933
     12 S                     1.163710
     13 O                    -0.688152
     14 O                    -0.635618
     15 N                    -0.981138
     16 H                     0.341406
     17 O                    -0.567345
     18 C                    -0.612663
     19 H                     0.158784
     20 H                     0.154759
     21 H                     0.164156
  ----------------------------------------
  Sum of atomic charges =    -1.000000

  Related Dipole Moment =     8.9286 (X  8.2137 Y -2.4086 Z -2.5405)


 Charges (in A.U.) from Merz-Kollman fitting 
 -----------------------------------------------
 Center     Atomic                  MZ       
 Number     Number                  Charge
 -----------------------------------------------
    1          6                   -0.129924
    2          6                   -0.057326
    3          1                    0.123836
    4          6                   -0.182858
    5          1                    0.142875
    6          6                   -0.068570
    7          6                    0.679754
    8          6                   -0.189198
    9          1                    0.125298
   10          6                   -0.090721
   11          1                    0.148933
   12         16                    1.163710
   13          8                   -0.688152
   14          8                   -0.635618
   15          7                   -0.981138
   16          1                    0.341406
   17          8                   -0.567345
   18          6                   -0.612663
   19          1                    0.158784
   20          1                    0.154759
   21          1                    0.164156
 -----------------------------------------------
 A restricted SCF calculation will be
 performed using Roothaan-Hall, DIIS
 SCF converges when DIIS error is below 1.0e-05
 ---------------------------------------
  Cycle       Energy         DIIS error
 ---------------------------------------
         Merz-Kollman ESP Net Atomic Charges

     Atom                 Charge (a.u.)
  ----------------------------------------
      1 C                    -0.169300
      2 C                    -0.087442
      3 H                     0.141892
      4 C                    -0.177100
      5 H                     0.156724
      6 C                     0.015337
      7 C                     0.686890
      8 C                    -0.195121
      9 H                     0.159625
     10 C                    -0.095813
     11 H                     0.154262
     12 S                     1.194194
     13 O                    -0.727562
     14 O                    -0.681709
     15 N                    -1.042919
     16 H                     0.369521
     17 O                    -0.616451
     18 C                    -0.586596
     19 H                     0.168870
     20 H                     0.164311
     21 H                     0.168387
  ----------------------------------------
  Sum of atomic charges =    -1.000000

  Related Dipole Moment =    10.6845 (X  8.9567 Y -2.2798 Z -5.3607)


 Charges (in A.U.) from Merz-Kollman fitting 
 -----------------------------------------------
 Center     Atomic                  MZ       
 Number     Number                  Charge
 -----------------------------------------------
    1          6                   -0.169300
    2          6                   -0.087442
    3          1                    0.141892
    4          6                   -0.177100
    5          1                    0.156724
    6          6                    0.015337
    7          6                    0.686890
    8          6                   -0.195121
    9          1                    0.159625
   10          6                   -0.095813
   11          1                    0.154262
   12         16                    1.194194
   13          8                   -0.727562
   14          8                   -0.681709
   15          7                   -1.042919
   16          1                    0.369521
   17          8                   -0.616451
   18          6                   -0.586596
   19          1                    0.168870
   20          1                    0.164311
   21          1                    0.168387
 -----------------------------------------------
    1    -988.0012342384      5.97e-04  Roothaan Step
 ---------------------------------------
  Cycle       Energy         DIIS error
 ---------------------------------------
         Merz-Kollman ESP Net Atomic Charges

     Atom                 Charge (a.u.)
  ----------------------------------------
      1 C                    -0.133418
      2 C                    -0.076310
      3 H                     0.140490
      4 C                    -0.197301
      5 H                     0.165277
      6 C                     0.010256
      7 C                     0.618277
      8 C                    -0.257428
      9 H                     0.177844
     10 C                    -0.070848
     11 H                     0.151561
     12 S                     1.227739
     13 O                    -0.744639
     14 O                    -0.692339
     15 N                    -1.053892
     16 H                     0.359851
     17 O                    -0.560144
     18 C                    -0.594513
     19 H                     0.176546
     20 H                     0.171163
     21 H                     0.181828
  ----------------------------------------
  Sum of atomic charges =    -1.000000

  Related Dipole Moment =    10.7309 (X  8.8533 Y -2.3564 Z -5.5874)


 Charges (in A.U.) from Merz-Kollman fitting 
 -----------------------------------------------
 Center     Atomic                  MZ       
 Number     Number                  Charge
 -----------------------------------------------
    1          6                   -0.133418
    2          6                   -0.076310
    3          1                    0.140490
    4          6                   -0.197301
    5          1                    0.165277
    6          6                    0.010256
    7          6                    0.618277
    8          6                   -0.257428
    9          1                    0.177844
   10          6                   -0.070848
   11          1                    0.151561
   12         16                    1.227739
   13          8                   -0.744639
   14          8                   -0.692339
   15          7                   -1.053892
   16          1                    0.359851
   17          8                   -0.560144
   18          6                   -0.594513
   19          1                    0.176546
   20          1                    0.171163
   21          1                    0.181828
 -----------------------------------------------
    1    -987.9905294581      4.11e-04  
         Merz-Kollman ESP Net Atomic Charges

     Atom                 Charge (a.u.)
  ----------------------------------------
      1 C                    -0.167115
      2 C                    -0.077587
      3 H                     0.141171
      4 C                    -0.194072
      5 H                     0.163678
      6 C                     0.033240
      7 C                     0.656388
      8 C                    -0.234994
      9 H                     0.172899
     10 C                    -0.076334
     11 H                     0.152066
     12 S                     1.234727
     13 O                    -0.745555
     14 O                    -0.696652
     15 N                    -1.061119
     16 H                     0.364830
     17 O                    -0.598118
     18 C                    -0.592080
     19 H                     0.175423
     20 H                     0.170409
     21 H                     0.178795
  ----------------------------------------
  Sum of atomic charges =    -1.000000

  Related Dipole Moment =    11.0439 (X  9.0527 Y -2.3274 Z -5.8822)


 Charges (in A.U.) from Merz-Kollman fitting 
 -----------------------------------------------
 Center     Atomic                  MZ       
 Number     Number                  Charge
 -----------------------------------------------
    1          6                   -0.167115
    2          6                   -0.077587
    3          1                    0.141171
    4          6                   -0.194072
    5          1                    0.163678
    6          6                    0.033240
    7          6                    0.656388
    8          6                   -0.234994
    9          1                    0.172899
   10          6                   -0.076334
   11          1                    0.152066
   12         16                    1.234727
   13          8                   -0.745555
   14          8                   -0.696652
   15          7                   -1.061119
   16          1                    0.364830
   17          8                   -0.598118
   18          6                   -0.592080
   19          1                    0.175423
   20          1                    0.170409
   21          1                    0.178795
 -----------------------------------------------
    2    -987.9907759298      4.74e-04  
         Merz-Kollman ESP Net Atomic Charges

     Atom                 Charge (a.u.)
  ----------------------------------------
      1 C                    -0.170991
      2 C                    -0.074389
      3 H                     0.141253
      4 C                    -0.195754
      5 H                     0.164663
      6 C                     0.036095
      7 C                     0.646908
      8 C                    -0.238406
      9 H                     0.174644
     10 C                    -0.072616
     11 H                     0.151918
     12 S                     1.236235
     13 O                    -0.747810
     14 O                    -0.698491
     15 N                    -1.064996
     16 H                     0.366118
     17 O                    -0.590105
     18 C                    -0.590973
     19 H                     0.175883
     20 H                     0.170962
     21 H                     0.179853
  ----------------------------------------
  Sum of atomic charges =    -1.000000

  Related Dipole Moment =    11.1301 (X  9.0391 Y -2.3329 Z -6.0607)


 Charges (in A.U.) from Merz-Kollman fitting 
 -----------------------------------------------
 Center     Atomic                  MZ       
 Number     Number                  Charge
 -----------------------------------------------
    1          6                   -0.170991
    2          6                   -0.074389
    3          1                    0.141253
    4          6                   -0.195754
    5          1                    0.164663
    6          6                    0.036095
    7          6                    0.646908
    8          6                   -0.238406
    9          1                    0.174644
   10          6                   -0.072616
   11          1                    0.151918
   12         16                    1.236235
   13          8                   -0.747810
   14          8                   -0.698491
   15          7                   -1.064996
   16          1                    0.366118
   17          8                   -0.590105
   18          6                   -0.590973
   19          1                    0.175883
   20          1                    0.170962
   21          1                    0.179853
 -----------------------------------------------
    3    -987.9893679821      7.60e-05  
         Merz-Kollman ESP Net Atomic Charges

     Atom                 Charge (a.u.)
  ----------------------------------------
      1 C                    -0.172306
      2 C                    -0.072510
      3 H                     0.141094
      4 C                    -0.198917
      5 H                     0.165547
      6 C                     0.040183
      7 C                     0.647192
      8 C                    -0.243056
      9 H                     0.175971
     10 C                    -0.070195
     11 H                     0.151717
     12 S                     1.239276
     13 O                    -0.749096
     14 O                    -0.699548
     15 N                    -1.066610
     16 H                     0.365476
     17 O                    -0.591600
     18 C                    -0.591507
     19 H                     0.176534
     20 H                     0.171617
     21 H                     0.180736
  ----------------------------------------
  Sum of atomic charges =    -1.000000

  Related Dipole Moment =    11.1836 (X  9.0681 Y -2.3382 Z -6.1136)


 Charges (in A.U.) from Merz-Kollman fitting 
 -----------------------------------------------
 Center     Atomic                  MZ       
 Number     Number                  Charge
 -----------------------------------------------
    1          6                   -0.172306
    2          6                   -0.072510
    3          1                    0.141094
    4          6                   -0.198917
    5          1                    0.165547
    6          6                    0.040183
    7          6                    0.647192
    8          6                   -0.243056
    9          1                    0.175971
   10          6                   -0.070195
   11          1                    0.151717
   12         16                    1.239276
   13          8                   -0.749096
   14          8                   -0.699548
   15          7                   -1.066610
   16          1                    0.365476
   17          8                   -0.591600
   18          6                   -0.591507
   19          1                    0.176534
   20          1                    0.171617
   21          1                    0.180736
 -----------------------------------------------
    4    -987.9886631472      4.49e-05  
    5    -987.9882839512      6.60e-06  Convergence criterion met
 ---------------------------------------
 SCF time:   CPU 82.69s  wall 11.00s 
(0)  E-EN(g) gas-phase elect-nuc energy                 -988.001233875 a.u.
(1)  E-EN(liq) elect-nuc energy of solute               -987.988283951 a.u.
(2)  G-P(liq) polarization free energy of solvation           -79.4823 kcal/mol
(3)  G-ENP(liq) elect-nuc-pol free energy of system     -988.114947068 a.u.
(4)  G-CDS(liq) cavity-dispersion-solvent structure 
     free energy                                                3.6756 kcal/mol
(5)  G-P-CDS(liq) = G-P(liq) + G-CDS(liq) = (2) + (4)         -75.8067 kcal/mol
(6)  G-S(liq) free energy of system = (1) + (5)         -988.109089608 a.u.
(7)  DeltaE-EN(liq) elect-nuc reorganization
     energy of solute molecule (7) = (1) - (0)                  8.1262 kcal/mol
(8)  DeltaG-ENP(liq) elect-nuc-pol free energy
     of solvation (8) = (3) - (0)                             -71.3561 kcal/mol
(9)  DeltaG-S(liq) free energy of  solvation
     (9) = (6) - (0)                                          -67.6805 kcal/mol
 SCF   energy in the final basis set =     -988.1090896078
 Total energy in the final basis set =     -988.1090896078
 
 --------------------------------------------------------------
 
                    Orbital Energies (a.u.)
 --------------------------------------------------------------
 
 Alpha MOs
 -- Occupied --
-90.1387 -19.6546 -19.6281 -19.6272 -14.7313 -10.6612 -10.5967 -10.5829
-10.5812 -10.5802 -10.5785 -10.5780 -10.5537  -8.4519  -6.3744  -6.3736
 -6.3730  -1.2157  -1.1814  -1.1007  -0.9922  -0.9732  -0.8956  -0.8706
 -0.8419  -0.7555  -0.7131  -0.6838  -0.6496  -0.6138  -0.5741  -0.5633
 -0.5564  -0.5383  -0.5275  -0.5265  -0.5126  -0.5045  -0.4843  -0.4657
 -0.4529  -0.4390  -0.4297  -0.4229  -0.4018  -0.3836  -0.3714  -0.3462
 -0.3405  -0.3352  -0.3308  -0.3005
 -- Virtual --
 -0.0480  -0.0214  -0.0104  -0.0008   0.0003   0.0050   0.0160   0.0248
  0.0280   0.0441   0.0452   0.0507   0.0544   0.0669   0.0683   0.0756
  0.0824   0.0873   0.0922   0.1016   0.1092   0.1114   0.1187   0.1204
  0.1267   0.1380   0.1406   0.1497   0.1543   0.1598   0.1668   0.1711
  0.1766   0.1807   0.1938   0.1945   0.1963   0.2041   0.2087   0.2204
  0.2228   0.2265   0.2315   0.2364   0.2454   0.2494   0.2554   0.2639
  0.2657   0.2737   0.2784   0.2802   0.2831   0.2930   0.2989   0.3029
  0.3063   0.3089   0.3163   0.3225   0.3334   0.3398   0.3461   0.3483
  0.3614   0.3695   0.3773   0.3839   0.3991   0.4224   0.4306   0.4351
  0.4552   0.4842   0.5292   0.5654   0.5856   0.6024   0.6583   0.6699
  0.6882   0.6909   0.7106   0.7192   0.7246   0.7354   0.7571   0.7673
  0.7705   0.7746   0.7798   0.8037   0.8088   0.8268   0.8384   0.8402
  0.8659   0.9089   0.9405   0.9479   0.9674   0.9933   0.9996   1.0061
  1.0217   1.0461   1.0497   1.0594   1.0867   1.0918   1.1100   1.1183
  1.1254   1.1621   1.1697   1.1782   1.1976   1.2035   1.2168   1.2282
  1.2470   1.2821   1.2936   1.3111   1.3210   1.3279   1.3477   1.3704
  1.3760   1.3805   1.3884   1.3897   1.4077   1.4155   1.4245   1.4351
  1.4445   1.4707   1.4991   1.5166   1.5343   1.5366   1.5440   1.5582
  1.6170   1.6937   1.7416   1.7447   1.7819   1.7866   1.8098   1.8253
  1.8302   1.8487   1.8635   1.8842   1.9003   1.9048   1.9173   1.9211
  1.9675   1.9959   2.0097   2.0348   2.0417   2.0549   2.0868   2.0953
  2.1297   2.1437   2.1711   2.1853   2.2022   2.2134   2.2405   2.2713
  2.2991   2.3174   2.3259   2.3306   2.3395   2.3609   2.4002   2.4649
  2.4738   2.5639   2.6004   2.6080   2.6473   2.6779   2.6805   2.7195
  2.7974   2.8054   2.8411   2.8749   2.9115   2.9550   3.0144   3.1354
  3.2220   3.3931   3.9776   4.0929   4.2089   4.2445   4.2531   4.2794
  4.2961   4.3385   4.3711   4.4120   4.4409   4.6197   4.7496
 --------------------------------------------------------------
 
          Ground-State Mulliken Net Atomic Charges

     Atom                 Charge (a.u.)
  ----------------------------------------
      1 C                    -4.263149
      2 C                    -0.596036
      3 H                     0.255191
      4 C                     1.495539
      5 H                     0.290793
      6 C                     2.651239
      7 C                     0.728238
      8 C                     2.155187
      9 H                     0.300220
     10 C                    -2.978143
     11 H                     0.261251
     12 S                     0.404325
     13 O                    -0.752382
     14 O                    -0.884989
     15 N                    -0.960855
     16 H                     0.401439
     17 O                    -0.634677
     18 C                     0.308146
     19 H                     0.280624
     20 H                     0.278936
     21 H                     0.259103
  ----------------------------------------
  Sum of atomic charges =    -1.000000

         Merz-Kollman ESP Net Atomic Charges

     Atom                 Charge (a.u.)
  ----------------------------------------
      1 C                    -0.173655
      2 C                    -0.072004
      3 H                     0.141025
      4 C                    -0.199393
      5 H                     0.165563
      6 C                     0.041278
      7 C                     0.646518
      8 C                    -0.243403
      9 H                     0.175934
     10 C                    -0.069630
     11 H                     0.151640
     12 S                     1.242028
     13 O                    -0.749842
     14 O                    -0.700272
     15 N                    -1.067522
     16 H                     0.365378
     17 O                    -0.591137
     18 C                    -0.591888
     19 H                     0.176671
     20 H                     0.171765
     21 H                     0.180946
  ----------------------------------------
  Sum of atomic charges =    -1.000000

  Related Dipole Moment =    11.1919 (X  9.0692 Y -2.3403 Z -6.1262)

 -----------------------------------------------------------------
                    Cartesian Multipole Moments
 -----------------------------------------------------------------
    Charge (ESU x 10^10)
                -4.8032
    Dipole Moment (Debye)
         X       9.0453      Y      -2.3798      Z      -6.1764
       Tot      11.2084
    Quadrupole Moments (Debye-Ang)
        XX     -99.9206     XY       2.3905     YY     -98.8050
        XZ     -11.3601     YZ      -6.9517     ZZ    -114.0586
    Octopole Moments (Debye-Ang^2)
       XXX     352.1483    XXY     -44.6927    XYY     130.5792
       YYY    -188.1986    XXZ     170.5096    XYZ      -5.9033
       YYZ     138.0758    XZZ     263.2099    YZZ     -58.7998
       ZZZ     581.6279
    Hexadecapole Moments (Debye-Ang^3)
      XXXX   -1473.4297   XXXY     142.3724   XXYY    -341.9907
      XYYY     228.3503   YYYY    -524.6743   XXXZ    -471.3537
      XXYZ     109.2708   XYYZ    -140.3095   YYYZ     227.2376
      XXZZ   -1471.9682   XYZZ     139.0470   YYZZ    -990.0084
      XZZZ   -1292.1568   YZZZ     233.3459   ZZZZ   -6385.1544
 -----------------------------------------------------------------
 Total job time:  26.05s(wall), 186.94s(cpu) 
 Wed Jun 29 14:54:38 2022

        *************************************************************
        *                                                           *
        *  Thank you very much for using Q-Chem.  Have a nice day.  *
        *                                                           *
        *************************************************************


