                  Welcome to Q-Chem
     A Quantum Leap Into The Future Of Chemistry


 Q-Chem 5.4 (devel), Q-Chem, Inc., Pleasanton, CA (2021)

 E. Epifanovsky,  A. T. B. Gilbert,  Xintian Feng,  Joonho Lee,  Yuezhi Mao,  
 N. Mardirossian,  P. Pokhilko,  A. White,  M. Wormit,  M. P. Coons,  
 A. L. Dempwolff,  Zhengting Gan,  D. Hait,  P. R. Horn,  L. D. Jacobson,  
 I. Kaliman,  J. Kussmann,  A. W. Lange,  Ka Un Lao,  D. S. Levine,  Jie Liu,  
 S. C. McKenzie,  A. F. Morrison,  K. Nanda,  F. Plasser,  D. R. Rehn,  
 M. L. Vidal,  Zhi-Qiang You,  Ying Zhu,  B. Alam,  B. Albrecht,  
 A. Aldossary,  E. Alguire,  J. H. Andersen,  D. Barton,  K. Begam,  A. Behn,  
 Y. A. Bernard,  E. J. Berquist,  H. Burton,  A. Carreras,  K. Carter-Fenk,  
 R. Chakraborty,  A. D. Chien,  K. D. Closser,  V. Cofer-Shabica,  
 S. Dasgupta,  Jia Deng,  M. de Wergifosse,  M. Diedenhofen,  Hainam Do,  
 S. Ehlert,  Po-Tung Fang,  S. Fatehi,  Qingguo Feng,  T. Friedhoff,  
 J. Gayvert,  Qinghui Ge,  G. Gidofalvi,  M. Goldey,  J. Gomes,  
 C. Gonzalez-Espinoza,  S. Gulania,  A. Gunina,  M. W. D. Hanson-Heine,  
 P. H. P. Harbach,  A. W. Hauser,  M. F. Herbst,  M. Hernandez Vera,  
 M. Hodecker,  Z. C. Holden,  S. Houck,  Xunkun Huang,  Kerwin Hui,  
 B. C. Huynh,  M. Ivanov,  Hyunjun Ji,  Hanjie Jiang,  B. Kaduk,  S. Kaehler,  
 K. Khistyaev,  Jaehoon Kim,  P. Klunzinger,  Z. Koczor-Benda,  
 Joong Hoon Koh,  D. Kosenkov,  L. Koulias,  T. Kowalczyk,  C. M. Krauter,  
 K. Kue,  A. Kunitsa,  T. Kus,  A. Landau,  K. V. Lawler,  D. Lefrancois,  
 S. Lehtola,  Rain Li,  Yi-Pei Li,  Jiashu Liang,  M. Liebenthal,  
 Hung-Hsuan Lin,  You-Sheng Lin,  Fenglai Liu,  Kuan-Yu Liu,  
 M. Loipersberger,  A. Luenser,  A. Manjanath,  P. Manohar,  E. Mansoor,  
 S. F. Manzer,  Shan-Ping Mao,  A. V. Marenich,  T. Markovich,  S. Mason,  
 S. A. Maurer,  P. F. McLaughlin,  M. F. S. J. Menger,  J.-M. Mewes,  
 S. A. Mewes,  P. Morgante,  J. W. Mullinax,  K. J. Oosterbaan,  G. Paran,  
 Alexander C. Paul,  Suranjan K. Paul,  F. Pavosevic,  Zheng Pei,  S. Prager,  
 E. I. Proynov,  E. Ramos,  B. Rana,  A. E. Rask,  A. Rettig,  R. M. Richard,  
 F. Rob,  E. Rossomme,  T. Scheele,  M. Scheurer,  M. Schneider,  
 N. Sergueev,  S. M. Sharada,  W. Skomorowski,  D. W. Small,  C. J. Stein,  
 Yu-Chuan Su,  E. J. Sundstrom,  Zhen Tao,  J. Thirman,  T. Tsuchimochi,  
 N. M. Tubman,  S. P. Veccham,  O. Vydrov,  J. Wenzel,  J. Witte,  A. Yamada,  
 Kun Yao,  S. Yeganeh,  S. R. Yost,  A. Zech,  Igor Ying Zhang,  Xing Zhang,  
 Yu Zhang,  D. Zuev,  A. Aspuru-Guzik,  A. T. Bell,  N. A. Besley,  
 K. B. Bravaya,  B. R. Brooks,  D. Casanova,  Jeng-Da Chai,  S. Coriani,  
 C. J. Cramer,  A. E. DePrince, III,  R. A. DiStasio Jr.,  A. Dreuw,  
 B. D. Dunietz,  T. R. Furlani,  W. A. Goddard III,  S. Grimme,  
 S. Hammes-Schiffer,  T. Head-Gordon,  W. J. Hehre,  Chao-Ping Hsu,  
 T.-C. Jagau,  Yousung Jung,  A. Klamt,  Jing Kong,  D. S. Lambrecht,  
 WanZhen Liang,  N. J. Mayhall,  C. W. McCurdy,  J. B. Neaton,  
 C. Ochsenfeld,  J. A. Parkhill,  R. Peverati,  V. A. Rassolov,  Yihan Shao,  
 L. V. Slipchenko,  T. Stauch,  R. P. Steele,  J. E. Subotnik,  
 A. J. W. Thom,  A. Tkatchenko,  D. G. Truhlar,  T. Van Voorhis,  
 T. A. Wesolowski,  K. B. Whaley,  H. L. Woodcock III,  P. M. Zimmerman,  
 S. Faraji,  P. M. W. Gill,  M. Head-Gordon,  J. M. Herbert,  A. I. Krylov

 Additional authors for Version 5.4.1: 
 S. Kotaru,  Shaozhi Li,  Xiangyuan Li,  F. Matz,  A. Molle,  Haisheng Ren,  
 Yingli Su,  Hung-Yi Tsai,  C. Utku,  Fang Wang

 Contributors to earlier versions of Q-Chem not listed above: 
 R. D. Adamson,  B. Austin,  R. Baer,  J. Baker,  G. J. O. Beran,  
 K. Brandhorst,  S. T. Brown,  E. F. C. Byrd,  A. K. Chakraborty,  
 G. K. L. Chan,  Chun-Min Chang,  Yunqing Chen,  C.-L. Cheng,  
 Siu Hung Chien,  D. M. Chipman,  D. L. Crittenden,  H. Dachsel,  
 R. J. Doerksen,  A. D. Dutoi,  R. G. Edgar,  J. Fosso-Tande,  
 L. Fusti-Molnar,  D. Ghosh,  A. Ghysels,  A. Golubeva-Zadorozhnaya,  
 J. Gonthier,  M. S. Gordon,  S. R. Gwaltney,  G. Hawkins,  J. E. Herr,  
 A. Heyden,  S. Hirata,  E. G. Hohenstein,  G. Kedziora,  F. J. Keil,  
 C. Kelley,  Jihan Kim,  R. A. King,  R. Z. Khaliullin,  P. P. Korambath,  
 W. Kurlancheek,  A. Laurent,  A. M. Lee,  M. S. Lee,  S. V. Levchenko,  
 Ching Yeh Lin,  D. Liotard,  E. Livshits,  R. C. Lochan,  I. Lotan,  
 L. A. Martinez-Martinez,  P. E. Maslen,  N. Nair,  D. P. O'Neill,  
 D. Neuhauser,  E. Neuscamman,  C. M. Oana,  R. Olivares-Amaya,  R. Olson,  
 T. M. Perrine,  B. Peters,  P. A. Pieniazek,  A. Prociuk,  Y. M. Rhee,  
 J. Ritchie,  M. A. Rohrdanz,  E. Rosta,  N. J. Russ,  H. F. Schaefer III,  
 M. W. Schmidt,  N. E. Schultz,  S. Sharma,  N. Shenvi,  C. D. Sherrill,  
 A. C. Simmonett,  A. Sodt,  T. Stein,  D. Stuck,  K. S. Thanthiriwatte,  
 V. Vanovschi,  L. Vogt,  Tao Wang,  A. Warshel,  M. A. Watson,  
 C. F. Williams,  Q. Wu,  X. Xu,  Jun Yang,  W. Zhang,  Yan Zhao

 Please cite Q-Chem as follows:
 Y. Shao et al., Mol. Phys. 113, 184-215 (2015)
 DOI: 10.1080/00268976.2014.952696

 Q-Chem 5.4.1 for Intel X86 EM64T Linux

 Parts of Q-Chem use Armadillo 9.800.1 (Horizon Scraper).
 http://arma.sourceforge.net/

 Q-Chem begins on Sun May 22 16:18:49 2022  

 Host: gadi-cpu-clx-0882.gadi.nci.org.au
0

     Scratch files written to /jobfs/40921208.gadi-pbs/qchem217681//
 Processing $rem in /apps/qchem/5.4.1/config/preferences:
 Processing $rem in /home/561/yj5695/.qchemrc:
 Symmetry turned off for PCM/SM12/SMD calculation
 Method-specific promolecule density matrix will be built for SM12 calculation

 Checking the input file for inconsistencies... 	...done.

--------------------------------------------------------------
User input:
--------------------------------------------------------------
$molecule
-1  1
C -1.1281237885  0.6227711659 -0.8439584432
C -2.3008166167  0.3572062119 -1.5627339328
C -3.553493653 -0.1385064164 -0.9146591571
C -2.3283914189  0.5523759822 -2.9445543186
H -3.2379838287  0.3262079093 -3.4939416762
C -1.2057033508  1.0469086158 -3.605027462
C -0.0470922901  1.3299930309 -2.8846009856
H  0.8332617623  1.7104359191 -3.3936032046
C -0.0047865669  1.108193201 -1.5079857195
H  0.9072038638  1.295471547 -0.950307233
S -1.0177130646  0.3121408764  0.9408252867
O -1.8021858504 -0.951081423  1.101760477
O  0.4382752196  0.144866596  1.1905060316
N -1.5374137231  1.5369558867  1.7550682666
H -2.5528448483  1.5765007585  1.6365746509
O -4.153193001 -1.1360646931 -1.2691413547
O -3.9744456528  0.6713498019  0.05299687
C -5.1061526316  0.2206288862  0.8152564517
H -1.2374067897  1.2070302744 -4.6781624715
H -5.2628368168  0.9806945628  1.5785694655
H -4.8787305879 -0.7444294121  1.2734873141
H -5.9830753659  0.1377927188  0.1706401449
$end

$rem
jobtype sp
exchange M062X
basis 6-31+G*
xc_grid 1
SMX_GAS_PHASE = TRUE
solvent_method sm12
$end

$smx
solvent water
charges mk
$end
--------------------------------------------------------------
 ----------------------------------------------------------------
             Standard Nuclear Orientation (Angstroms)
    I     Atom           X                Y                Z
 ----------------------------------------------------------------
    1      C      -1.1281237885     0.6227711659    -0.8439584432
    2      C      -2.3008166167     0.3572062119    -1.5627339328
    3      C      -3.5534936530    -0.1385064164    -0.9146591571
    4      C      -2.3283914189     0.5523759822    -2.9445543186
    5      H      -3.2379838287     0.3262079093    -3.4939416762
    6      C      -1.2057033508     1.0469086158    -3.6050274620
    7      C      -0.0470922901     1.3299930309    -2.8846009856
    8      H       0.8332617623     1.7104359191    -3.3936032046
    9      C      -0.0047865669     1.1081932010    -1.5079857195
   10      H       0.9072038638     1.2954715470    -0.9503072330
   11      S      -1.0177130646     0.3121408764     0.9408252867
   12      O      -1.8021858504    -0.9510814230     1.1017604770
   13      O       0.4382752196     0.1448665960     1.1905060316
   14      N      -1.5374137231     1.5369558867     1.7550682666
   15      H      -2.5528448483     1.5765007585     1.6365746509
   16      O      -4.1531930010    -1.1360646931    -1.2691413547
   17      O      -3.9744456528     0.6713498019     0.0529968700
   18      C      -5.1061526316     0.2206288862     0.8152564517
   19      H      -1.2374067897     1.2070302744    -4.6781624715
   20      H      -5.2628368168     0.9806945628     1.5785694655
   21      H      -4.8787305879    -0.7444294121     1.2734873141
   22      H      -5.9830753659     0.1377927188     0.1706401449
 ----------------------------------------------------------------
 Nuclear Repulsion Energy =        1064.75963417 hartrees
 There are       56 alpha and       56 beta electrons
 Requested basis set is 6-31+G(d)
 There are 87 shells and 286 basis functions

 Total QAlloc Memory Limit   2000 MB
 Mega-Array Size       188 MB
 MEM_STATIC part       192 MB
 A cutoff of  1.0D-08 yielded   2978 shell pairs
 There are     34891 function pairs
 Smallest overlap matrix eigenvalue = 9.03E-07

 Q-Chem warning in module stvman/mkSTV.C, line 323:

 Overlap eigenvalue is smaller than square root of threshold
 Use THRESH >= 12 to get rid of this warning

 Linear dependence detected in AO basis
 Tighter screening thresholds may be required for diffuse basis sets
 Use S2THRESH > 14 and THRESH = 14 in case of SCF convergence issues
 Number of orthogonalized atomic orbitals = 285
 Maximum deviation from orthogonality = 5.111E-11

 Scale SEOQF with 1.000000e-02/1.000000e-01/1.000000e-01

 Standard Electronic Orientation quadrupole field applied
 Nucleus-field energy     =    -0.0000000286 hartrees
 ================ Generating on-the-fly Promolecule Density  ================
Attempting to make child job directory: /jobfs/40921208.gadi-pbs/qchem217681//Frg1/
Attempting to make child job directory: /jobfs/40921208.gadi-pbs/qchem217681//Frg2/
Attempting to make child job directory: /jobfs/40921208.gadi-pbs/qchem217681//Frg3/
Attempting to make child job directory: /jobfs/40921208.gadi-pbs/qchem217681//Frg4/
Attempting to make child job directory: /jobfs/40921208.gadi-pbs/qchem217681//Frg5/
Creating input file /jobfs/40921208.gadi-pbs/qchem217681/Frg1.input
using default PutDataFrgm: nothing
calling putenv with: QCSCRATCH=/jobfs/40921208.gadi-pbs/qchem217681/ 
Spawning Job For Fragment 0
Done Job For Fragment 0
calling putenv with: QCSCRATCH=/jobfs/40921208.gadi-pbs 
calling putenv with: QCTHREADS=16 
Creating input file /jobfs/40921208.gadi-pbs/qchem217681/Frg2.input
using default PutDataFrgm: nothing
calling putenv with: QCSCRATCH=/jobfs/40921208.gadi-pbs/qchem217681/ 
Spawning Job For Fragment 1
Done Job For Fragment 1
calling putenv with: QCSCRATCH=/jobfs/40921208.gadi-pbs 
calling putenv with: QCTHREADS=16 
Creating input file /jobfs/40921208.gadi-pbs/qchem217681/Frg3.input
using default PutDataFrgm: nothing
calling putenv with: QCSCRATCH=/jobfs/40921208.gadi-pbs/qchem217681/ 
Spawning Job For Fragment 2
Done Job For Fragment 2
calling putenv with: QCSCRATCH=/jobfs/40921208.gadi-pbs 
calling putenv with: QCTHREADS=16 
Creating input file /jobfs/40921208.gadi-pbs/qchem217681/Frg4.input
using default PutDataFrgm: nothing
calling putenv with: QCSCRATCH=/jobfs/40921208.gadi-pbs/qchem217681/ 
Spawning Job For Fragment 3
Done Job For Fragment 3
calling putenv with: QCSCRATCH=/jobfs/40921208.gadi-pbs 
calling putenv with: QCTHREADS=16 
Creating input file /jobfs/40921208.gadi-pbs/qchem217681/Frg5.input
using default PutDataFrgm: nothing
calling putenv with: QCSCRATCH=/jobfs/40921208.gadi-pbs/qchem217681/ 
Spawning Job For Fragment 4
Done Job For Fragment 4
calling putenv with: QCSCRATCH=/jobfs/40921208.gadi-pbs 
calling putenv with: QCTHREADS=16 
 Time for running child jobs:  CPU 2.24 s  wall 2.08 s
 ============= Method Specific Promolecule Density Constructed =============
 Guess from superposition of atomic densities
 Warning:  Energy on first SCF cycle will be non-variational
 SAD guess density has 111.000000 electrons

 -----------------------------------------------------------------------
  General SCF calculation program by
  Eric Jon Sundstrom, Paul Horn, Yuezhi Mao, Dmitri Zuev, Alec White,
  David Stuck, Shaama M.S., Shane Yost, Joonho Lee, David Small,
  Daniel Levine, Susi Lehtola, Hugh Burton, Evgeny Epifanovsky,
  Bang C. Huynh
 -----------------------------------------------------------------------
 Exchange:     0.5400 Hartree-Fock + 1.0000 M06-2X
 Correlation:  1.0000 M06-2X
 Using SG-1 standard quadrature grid
 using 16 threads for integral computing
 -------------------------------------------------------
 OpenMP Integral computing Module                
 Release: version 1.0, May 2013, Q-Chem Inc. Pittsburgh 
 -------------------------------------------------------
 A restricted SCF calculation will be
 performed using DIIS
 SCF converges when DIIS error is below 1.0e-05
 ---------------------------------------
  Cycle       Energy         DIIS error
 ---------------------------------------
    1   -1067.2054344989      4.48e-02  
    2   -1062.8753416183      6.24e-03  
    3   -1062.6436797998      8.65e-03  
    4   -1063.1981862625      1.17e-03  
    5   -1063.2093223615      4.80e-04  
    6   -1063.2112357595      1.09e-04  
    7   -1063.2113495883      3.52e-05  
    8   -1063.2113604250      1.25e-05  
    9   -1063.2113622570      5.57e-06  Convergence criterion met
 ---------------------------------------
 SCF time:   CPU 88.22s  wall 5.00s 
 SCF   energy in the final basis set =    -1063.2113622570
 Total energy in the final basis set =    -1063.2113622570
 Exchange:     0.5400 Hartree-Fock + 1.0000 M06-2X
 Correlation:  1.0000 M06-2X
 Using SG-1 standard quadrature grid
 
 SM12 calculation using Merz-Singh-Kollman charges
 Citation of the SM12 model:
 Marenich, A.V.; Cramer, C.J.; Truhlar, D.G.
 J. Chem. Theory Comput. 2013, 9, 609-612.
 iSolventCode=           1
 Solvent: water                                                           
 
  Building new vdw surfaces
         Merz-Kollman ESP Net Atomic Charges

     Atom                 Charge (a.u.)
  ----------------------------------------
      1 C                    -0.177573
      2 C                    -0.101634
      3 C                     0.915681
      4 C                    -0.223990
      5 H                     0.131533
      6 C                    -0.064077
      7 C                    -0.220358
      8 H                     0.130798
      9 C                    -0.045180
     10 H                     0.154571
     11 S                     1.174545
     12 O                    -0.665367
     13 O                    -0.637510
     14 N                    -1.039494
     15 H                     0.413097
     16 O                    -0.597591
     17 O                    -0.400178
     18 C                    -0.346932
     19 H                     0.103150
     20 H                     0.174510
     21 H                     0.182121
     22 H                     0.139878
  ----------------------------------------
  Sum of atomic charges =    -1.000000

  Related Dipole Moment =     6.7261 (X  4.5790 Y  0.6385 Z -4.8852)


 Charges (in A.U.) from Merz-Kollman fitting 
 -----------------------------------------------
 Center     Atomic                  MZ       
 Number     Number                  Charge
 -----------------------------------------------
    1          6                   -0.177573
    2          6                   -0.101634
    3          6                    0.915681
    4          6                   -0.223990
    5          1                    0.131533
    6          6                   -0.064077
    7          6                   -0.220358
    8          1                    0.130798
    9          6                   -0.045180
   10          1                    0.154571
   11         16                    1.174545
   12          8                   -0.665367
   13          8                   -0.637510
   14          7                   -1.039494
   15          1                    0.413097
   16          8                   -0.597591
   17          8                   -0.400178
   18          6                   -0.346932
   19          1                    0.103150
   20          1                    0.174510
   21          1                    0.182121
   22          1                    0.139878
 -----------------------------------------------
 A restricted SCF calculation will be
 performed using Roothaan-Hall, DIIS
 SCF converges when DIIS error is below 1.0e-05
 ---------------------------------------
  Cycle       Energy         DIIS error
 ---------------------------------------
         Merz-Kollman ESP Net Atomic Charges

     Atom                 Charge (a.u.)
  ----------------------------------------
      1 C                    -0.205071
      2 C                    -0.123696
      3 C                     0.921399
      4 C                    -0.224178
      5 H                     0.154700
      6 C                    -0.014945
      7 C                    -0.203159
      8 H                     0.158937
      9 C                    -0.074308
     10 H                     0.165570
     11 S                     1.191834
     12 O                    -0.694084
     13 O                    -0.685016
     14 N                    -1.094682
     15 H                     0.440848
     16 O                    -0.621020
     17 O                    -0.404954
     18 C                    -0.365025
     19 H                     0.126875
     20 H                     0.200899
     21 H                     0.187362
     22 H                     0.161714
  ----------------------------------------
  Sum of atomic charges =    -1.000000

  Related Dipole Moment =     8.3356 (X  3.9641 Y  1.3295 Z -7.2112)


 Charges (in A.U.) from Merz-Kollman fitting 
 -----------------------------------------------
 Center     Atomic                  MZ       
 Number     Number                  Charge
 -----------------------------------------------
    1          6                   -0.205071
    2          6                   -0.123696
    3          6                    0.921399
    4          6                   -0.224178
    5          1                    0.154700
    6          6                   -0.014945
    7          6                   -0.203159
    8          1                    0.158937
    9          6                   -0.074308
   10          1                    0.165570
   11         16                    1.191834
   12          8                   -0.694084
   13          8                   -0.685016
   14          7                   -1.094682
   15          1                    0.440848
   16          8                   -0.621020
   17          8                   -0.404954
   18          6                   -0.365025
   19          1                    0.126875
   20          1                    0.200899
   21          1                    0.187362
   22          1                    0.161714
 -----------------------------------------------
    1   -1063.2113623380      5.58e-04  Roothaan Step
 ---------------------------------------
  Cycle       Energy         DIIS error
 ---------------------------------------
         Merz-Kollman ESP Net Atomic Charges

     Atom                 Charge (a.u.)
  ----------------------------------------
      1 C                    -0.142576
      2 C                    -0.102966
      3 C                     0.926050
      4 C                    -0.254154
      5 H                     0.161259
      6 C                    -0.043789
      7 C                    -0.247504
      8 H                     0.175796
      9 C                    -0.069161
     10 H                     0.164625
     11 S                     1.218901
     12 O                    -0.709189
     13 O                    -0.695584
     14 N                    -1.111557
     15 H                     0.435991
     16 O                    -0.616642
     17 O                    -0.420555
     18 C                    -0.383456
     19 H                     0.143710
     20 H                     0.210095
     21 H                     0.195068
     22 H                     0.165640
  ----------------------------------------
  Sum of atomic charges =    -1.000000

  Related Dipole Moment =     8.2102 (X  3.9875 Y  1.1744 Z -7.0801)


 Charges (in A.U.) from Merz-Kollman fitting 
 -----------------------------------------------
 Center     Atomic                  MZ       
 Number     Number                  Charge
 -----------------------------------------------
    1          6                   -0.142576
    2          6                   -0.102966
    3          6                    0.926050
    4          6                   -0.254154
    5          1                    0.161259
    6          6                   -0.043789
    7          6                   -0.247504
    8          1                    0.175796
    9          6                   -0.069161
   10          1                    0.164625
   11         16                    1.218901
   12          8                   -0.709189
   13          8                   -0.695584
   14          7                   -1.111557
   15          1                    0.435991
   16          8                   -0.616642
   17          8                   -0.420555
   18          6                   -0.383456
   19          1                    0.143710
   20          1                    0.210095
   21          1                    0.195068
   22          1                    0.165640
 -----------------------------------------------
    1   -1063.2013584975      3.31e-04  
         Merz-Kollman ESP Net Atomic Charges

     Atom                 Charge (a.u.)
  ----------------------------------------
      1 C                    -0.191661
      2 C                    -0.108313
      3 C                     0.923841
      4 C                    -0.242551
      5 H                     0.160052
      6 C                    -0.017890
      7 C                    -0.228738
      8 H                     0.171791
      9 C                    -0.066319
     10 H                     0.164597
     11 S                     1.226155
     12 O                    -0.707697
     13 O                    -0.700355
     14 N                    -1.115269
     15 H                     0.439743
     16 O                    -0.622008
     17 O                    -0.413116
     18 C                    -0.382476
     19 H                     0.138346
     20 H                     0.210177
     21 H                     0.194790
     22 H                     0.166901
  ----------------------------------------
  Sum of atomic charges =    -1.000000

  Related Dipole Moment =     8.5413 (X  3.9328 Y  1.3081 Z -7.4683)


 Charges (in A.U.) from Merz-Kollman fitting 
 -----------------------------------------------
 Center     Atomic                  MZ       
 Number     Number                  Charge
 -----------------------------------------------
    1          6                   -0.191661
    2          6                   -0.108313
    3          6                    0.923841
    4          6                   -0.242551
    5          1                    0.160052
    6          6                   -0.017890
    7          6                   -0.228738
    8          1                    0.171791
    9          6                   -0.066319
   10          1                    0.164597
   11         16                    1.226155
   12          8                   -0.707697
   13          8                   -0.700355
   14          7                   -1.115269
   15          1                    0.439743
   16          8                   -0.622008
   17          8                   -0.413116
   18          6                   -0.382476
   19          1                    0.138346
   20          1                    0.210177
   21          1                    0.194790
   22          1                    0.166901
 -----------------------------------------------
    2   -1063.2013651825      3.13e-04  
         Merz-Kollman ESP Net Atomic Charges

     Atom                 Charge (a.u.)
  ----------------------------------------
      1 C                    -0.181164
      2 C                    -0.107146
      3 C                     0.922520
      4 C                    -0.245876
      5 H                     0.161543
      6 C                    -0.020960
      7 C                    -0.233108
      8 H                     0.174513
      9 C                    -0.066610
     10 H                     0.164909
     11 S                     1.225036
     12 O                    -0.710742
     13 O                    -0.701275
     14 N                    -1.118944
     15 H                     0.440367
     16 O                    -0.621127
     17 O                    -0.414183
     18 C                    -0.384148
     19 H                     0.141505
     20 H                     0.211580
     21 H                     0.195680
     22 H                     0.167628
  ----------------------------------------
  Sum of atomic charges =    -1.000000

  Related Dipole Moment =     8.6037 (X  3.9278 Y  1.3167 Z -7.5407)


 Charges (in A.U.) from Merz-Kollman fitting 
 -----------------------------------------------
 Center     Atomic                  MZ       
 Number     Number                  Charge
 -----------------------------------------------
    1          6                   -0.181164
    2          6                   -0.107146
    3          6                    0.922520
    4          6                   -0.245876
    5          1                    0.161543
    6          6                   -0.020960
    7          6                   -0.233108
    8          1                    0.174513
    9          6                   -0.066610
   10          1                    0.164909
   11         16                    1.225036
   12          8                   -0.710742
   13          8                   -0.701275
   14          7                   -1.118944
   15          1                    0.440367
   16          8                   -0.621127
   17          8                   -0.414183
   18          6                   -0.384148
   19          1                    0.141505
   20          1                    0.211580
   21          1                    0.195680
   22          1                    0.167628
 -----------------------------------------------
    3   -1063.1997824999      5.26e-05  
         Merz-Kollman ESP Net Atomic Charges

     Atom                 Charge (a.u.)
  ----------------------------------------
      1 C                    -0.187101
      2 C                    -0.105501
      3 C                     0.922645
      4 C                    -0.246457
      5 H                     0.161681
      6 C                    -0.018691
      7 C                    -0.233959
      8 H                     0.174970
      9 C                    -0.064911
     10 H                     0.164785
     11 S                     1.228071
     12 O                    -0.710308
     13 O                    -0.702429
     14 N                    -1.119872
     15 H                     0.440190
     16 O                    -0.621832
     17 O                    -0.413491
     18 C                    -0.385682
     19 H                     0.141633
     20 H                     0.212086
     21 H                     0.196239
     22 H                     0.167933
  ----------------------------------------
  Sum of atomic charges =    -1.000000

  Related Dipole Moment =     8.6250 (X  3.9234 Y  1.3177 Z -7.5671)


 Charges (in A.U.) from Merz-Kollman fitting 
 -----------------------------------------------
 Center     Atomic                  MZ       
 Number     Number                  Charge
 -----------------------------------------------
    1          6                   -0.187101
    2          6                   -0.105501
    3          6                    0.922645
    4          6                   -0.246457
    5          1                    0.161681
    6          6                   -0.018691
    7          6                   -0.233959
    8          1                    0.174970
    9          6                   -0.064911
   10          1                    0.164785
   11         16                    1.228071
   12          8                   -0.710308
   13          8                   -0.702429
   14          7                   -1.119872
   15          1                    0.440190
   16          8                   -0.621832
   17          8                   -0.413491
   18          6                   -0.385682
   19          1                    0.141633
   20          1                    0.212086
   21          1                    0.196239
   22          1                    0.167933
 -----------------------------------------------
    4   -1063.1991790019      3.19e-05  
    5   -1063.1989772565      6.30e-06  Convergence criterion met
 ---------------------------------------
 SCF time:   CPU 86.21s  wall 6.00s 
(0)  E-EN(g) gas-phase elect-nuc energy                -1063.211362257 a.u.
(1)  E-EN(liq) elect-nuc energy of solute              -1063.198977257 a.u.
(2)  G-P(liq) polarization free energy of solvation           -80.0819 kcal/mol
(3)  G-ENP(liq) elect-nuc-pol free energy of system    -1063.326595842 a.u.
(4)  G-CDS(liq) cavity-dispersion-solvent structure 
     free energy                                                4.0893 kcal/mol
(5)  G-P-CDS(liq) = G-P(liq) + G-CDS(liq) = (2) + (4)         -75.9926 kcal/mol
(6)  G-S(liq) free energy of system = (1) + (5)        -1063.320079154 a.u.
(7)  DeltaE-EN(liq) elect-nuc reorganization
     energy of solute molecule (7) = (1) - (0)                  7.7717 kcal/mol
(8)  DeltaG-ENP(liq) elect-nuc-pol free energy
     of solvation (8) = (3) - (0)                             -72.3102 kcal/mol
(9)  DeltaG-S(liq) free energy of  solvation
     (9) = (6) - (0)                                          -68.2209 kcal/mol
 SCF   energy in the final basis set =    -1063.3200791543
 Total energy in the final basis set =    -1063.3200791543
 
 --------------------------------------------------------------
 
                    Orbital Energies (a.u.)
 --------------------------------------------------------------
 
 Alpha MOs
 -- Occupied --
-90.1430 -19.7129 -19.6615 -19.6270 -19.6247 -14.7277 -10.7129 -10.6089
-10.6019 -10.5993 -10.5863 -10.5822 -10.5815 -10.5809  -8.4509  -6.3732
 -6.3725  -6.3717  -1.2599  -1.2143  -1.1626  -1.0993  -0.9967  -0.9718
 -0.8969  -0.8778  -0.8359  -0.7515  -0.7287  -0.6879  -0.6648  -0.6382
 -0.5962  -0.5857  -0.5842  -0.5676  -0.5545  -0.5436  -0.5286  -0.5239
 -0.5060  -0.4825  -0.4643  -0.4570  -0.4480  -0.4359  -0.4247  -0.4007
 -0.3936  -0.3853  -0.3803  -0.3701  -0.3416  -0.3355  -0.3327  -0.2999
 -- Virtual --
 -0.0271  -0.0255  -0.0149  -0.0093  -0.0075   0.0022   0.0075   0.0116
  0.0218   0.0250   0.0284   0.0377   0.0442   0.0518   0.0601   0.0676
  0.0688   0.0800   0.0860   0.0904   0.0969   0.1011   0.1060   0.1111
  0.1169   0.1254   0.1313   0.1401   0.1431   0.1527   0.1553   0.1589
  0.1693   0.1749   0.1775   0.1817   0.1893   0.1966   0.1998   0.2034
  0.2080   0.2110   0.2119   0.2253   0.2317   0.2348   0.2466   0.2552
  0.2594   0.2634   0.2714   0.2752   0.2773   0.2852   0.2878   0.2935
  0.2987   0.3056   0.3081   0.3137   0.3176   0.3328   0.3380   0.3481
  0.3554   0.3618   0.3652   0.3691   0.3746   0.3857   0.3958   0.3975
  0.4088   0.4101   0.4368   0.4504   0.4697   0.5055   0.5448   0.5701
  0.5838   0.6292   0.6681   0.6804   0.6884   0.6988   0.7086   0.7228
  0.7269   0.7336   0.7468   0.7626   0.7724   0.7779   0.7876   0.8012
  0.8216   0.8300   0.8449   0.8508   0.8744   0.8840   0.9329   0.9536
  0.9608   0.9652   0.9856   0.9885   1.0042   1.0052   1.0241   1.0457
  1.0632   1.0678   1.0846   1.1018   1.1257   1.1342   1.1472   1.1593
  1.1745   1.1834   1.1902   1.2048   1.2125   1.2302   1.2623   1.2873
  1.2997   1.3191   1.3345   1.3610   1.3698   1.3741   1.3835   1.3983
  1.4032   1.4167   1.4181   1.4320   1.4438   1.4507   1.4694   1.4840
  1.5030   1.5098   1.5199   1.5322   1.5528   1.5665   1.6086   1.6258
  1.6609   1.7010   1.7367   1.7448   1.7833   1.8077   1.8147   1.8299
  1.8403   1.8438   1.8669   1.8790   1.8944   1.9015   1.9233   1.9565
  1.9649   1.9903   2.0074   2.0167   2.0322   2.0518   2.0581   2.0892
  2.1006   2.1389   2.1524   2.1653   2.1832   2.1861   2.1970   2.2139
  2.2372   2.2578   2.2954   2.3048   2.3215   2.3376   2.3438   2.3727
  2.3869   2.4456   2.4589   2.5009   2.5870   2.6223   2.6353   2.6525
  2.6674   2.6914   2.7257   2.7389   2.7823   2.8271   2.8632   2.8834
  2.9473   2.9490   2.9944   3.1591   3.1639   3.2132   3.3871   4.0426
  4.1198   4.2450   4.2484   4.2750   4.2959   4.3252   4.3647   4.4028
  4.4398   4.4984   4.5410   4.5987   4.7668
 --------------------------------------------------------------
 
          Ground-State Mulliken Net Atomic Charges

     Atom                 Charge (a.u.)
  ----------------------------------------
      1 C                    -3.973247
      2 C                    -0.338163
      3 C                     0.307506
      4 C                     0.649216
      5 H                     0.294725
      6 C                     1.829707
      7 C                     1.741741
      8 H                     0.292482
      9 C                    -0.551403
     10 H                     0.266848
     11 S                     0.560326
     12 O                    -0.787265
     13 O                    -0.858410
     14 N                    -0.966891
     15 H                     0.430945
     16 O                    -0.526443
     17 O                    -0.360139
     18 C                    -0.111930
     19 H                     0.301749
     20 H                     0.274704
     21 H                     0.253934
     22 H                     0.270007
  ----------------------------------------
  Sum of atomic charges =    -1.000000

         Merz-Kollman ESP Net Atomic Charges

     Atom                 Charge (a.u.)
  ----------------------------------------
      1 C                    -0.187135
      2 C                    -0.105386
      3 C                     0.922622
      4 C                    -0.246629
      5 H                     0.161632
      6 C                    -0.018361
      7 C                    -0.234124
      8 H                     0.174981
      9 C                    -0.064710
     10 H                     0.164726
     11 S                     1.230008
     12 O                    -0.711091
     13 O                    -0.702876
     14 N                    -1.120593
     15 H                     0.440119
     16 O                    -0.621778
     17 O                    -0.413668
     18 C                    -0.385772
     19 H                     0.141630
     20 H                     0.212135
     21 H                     0.196330
     22 H                     0.167938
  ----------------------------------------
  Sum of atomic charges =    -1.000000

  Related Dipole Moment =     8.6322 (X  3.9269 Y  1.3179 Z -7.5735)

 -----------------------------------------------------------------
                    Cartesian Multipole Moments
 -----------------------------------------------------------------
    Charge (ESU x 10^10)
                -4.8032
    Dipole Moment (Debye)
         X       3.9236      Y       1.2821      Z      -7.6327
       Tot       8.6774
    Quadrupole Moments (Debye-Ang)
        XX     -94.0843     XY      -7.5272     YY    -106.1058
        XZ      -4.8107     YZ     -10.1858     ZZ     -95.5126
    Octopole Moments (Debye-Ang^2)
       XXX     492.8942    XXY       7.2410    XYY     207.4986
       YYY    -129.8583    XXZ      84.9309    XYZ       9.7569
       YYZ      37.7180    XZZ     174.8203    YZZ     -30.5437
       ZZZ      67.3385
    Hexadecapole Moments (Debye-Ang^3)
      XXXX   -3301.4322   XXXY    -118.5875   XXYY    -762.3939
      XYYY      87.3003   YYYY    -565.7025   XXXZ    -447.9839
      XXYZ       3.5502   XYYZ     -89.4924   YYYZ     118.9291
      XXZZ    -876.0573   XYZZ      12.2966   YYZZ    -428.4595
      XZZZ    -125.7254   YZZZ      28.6102   ZZZZ   -1668.7043
 -----------------------------------------------------------------
 Total job time:  13.66s(wall), 181.87s(cpu) 
 Sun May 22 16:19:03 2022

        *************************************************************
        *                                                           *
        *  Thank you very much for using Q-Chem.  Have a nice day.  *
        *                                                           *
        *************************************************************


