                  Welcome to Q-Chem
     A Quantum Leap Into The Future Of Chemistry


 Q-Chem 5.4 (devel), Q-Chem, Inc., Pleasanton, CA (2021)

 E. Epifanovsky,  A. T. B. Gilbert,  Xintian Feng,  Joonho Lee,  Yuezhi Mao,  
 N. Mardirossian,  P. Pokhilko,  A. White,  M. Wormit,  M. P. Coons,  
 A. L. Dempwolff,  Zhengting Gan,  D. Hait,  P. R. Horn,  L. D. Jacobson,  
 I. Kaliman,  J. Kussmann,  A. W. Lange,  Ka Un Lao,  D. S. Levine,  Jie Liu,  
 S. C. McKenzie,  A. F. Morrison,  K. Nanda,  F. Plasser,  D. R. Rehn,  
 M. L. Vidal,  Zhi-Qiang You,  Ying Zhu,  B. Alam,  B. Albrecht,  
 A. Aldossary,  E. Alguire,  J. H. Andersen,  D. Barton,  K. Begam,  A. Behn,  
 Y. A. Bernard,  E. J. Berquist,  H. Burton,  A. Carreras,  K. Carter-Fenk,  
 R. Chakraborty,  A. D. Chien,  K. D. Closser,  V. Cofer-Shabica,  
 S. Dasgupta,  Jia Deng,  M. de Wergifosse,  M. Diedenhofen,  Hainam Do,  
 S. Ehlert,  Po-Tung Fang,  S. Fatehi,  Qingguo Feng,  T. Friedhoff,  
 J. Gayvert,  Qinghui Ge,  G. Gidofalvi,  M. Goldey,  J. Gomes,  
 C. Gonzalez-Espinoza,  S. Gulania,  A. Gunina,  M. W. D. Hanson-Heine,  
 P. H. P. Harbach,  A. W. Hauser,  M. F. Herbst,  M. Hernandez Vera,  
 M. Hodecker,  Z. C. Holden,  S. Houck,  Xunkun Huang,  Kerwin Hui,  
 B. C. Huynh,  M. Ivanov,  Hyunjun Ji,  Hanjie Jiang,  B. Kaduk,  S. Kaehler,  
 K. Khistyaev,  Jaehoon Kim,  P. Klunzinger,  Z. Koczor-Benda,  
 Joong Hoon Koh,  D. Kosenkov,  L. Koulias,  T. Kowalczyk,  C. M. Krauter,  
 K. Kue,  A. Kunitsa,  T. Kus,  A. Landau,  K. V. Lawler,  D. Lefrancois,  
 S. Lehtola,  Rain Li,  Yi-Pei Li,  Jiashu Liang,  M. Liebenthal,  
 Hung-Hsuan Lin,  You-Sheng Lin,  Fenglai Liu,  Kuan-Yu Liu,  
 M. Loipersberger,  A. Luenser,  A. Manjanath,  P. Manohar,  E. Mansoor,  
 S. F. Manzer,  Shan-Ping Mao,  A. V. Marenich,  T. Markovich,  S. Mason,  
 S. A. Maurer,  P. F. McLaughlin,  M. F. S. J. Menger,  J.-M. Mewes,  
 S. A. Mewes,  P. Morgante,  J. W. Mullinax,  K. J. Oosterbaan,  G. Paran,  
 Alexander C. Paul,  Suranjan K. Paul,  F. Pavosevic,  Zheng Pei,  S. Prager,  
 E. I. Proynov,  E. Ramos,  B. Rana,  A. E. Rask,  A. Rettig,  R. M. Richard,  
 F. Rob,  E. Rossomme,  T. Scheele,  M. Scheurer,  M. Schneider,  
 N. Sergueev,  S. M. Sharada,  W. Skomorowski,  D. W. Small,  C. J. Stein,  
 Yu-Chuan Su,  E. J. Sundstrom,  Zhen Tao,  J. Thirman,  T. Tsuchimochi,  
 N. M. Tubman,  S. P. Veccham,  O. Vydrov,  J. Wenzel,  J. Witte,  A. Yamada,  
 Kun Yao,  S. Yeganeh,  S. R. Yost,  A. Zech,  Igor Ying Zhang,  Xing Zhang,  
 Yu Zhang,  D. Zuev,  A. Aspuru-Guzik,  A. T. Bell,  N. A. Besley,  
 K. B. Bravaya,  B. R. Brooks,  D. Casanova,  Jeng-Da Chai,  S. Coriani,  
 C. J. Cramer,  A. E. DePrince, III,  R. A. DiStasio Jr.,  A. Dreuw,  
 B. D. Dunietz,  T. R. Furlani,  W. A. Goddard III,  S. Grimme,  
 S. Hammes-Schiffer,  T. Head-Gordon,  W. J. Hehre,  Chao-Ping Hsu,  
 T.-C. Jagau,  Yousung Jung,  A. Klamt,  Jing Kong,  D. S. Lambrecht,  
 WanZhen Liang,  N. J. Mayhall,  C. W. McCurdy,  J. B. Neaton,  
 C. Ochsenfeld,  J. A. Parkhill,  R. Peverati,  V. A. Rassolov,  Yihan Shao,  
 L. V. Slipchenko,  T. Stauch,  R. P. Steele,  J. E. Subotnik,  
 A. J. W. Thom,  A. Tkatchenko,  D. G. Truhlar,  T. Van Voorhis,  
 T. A. Wesolowski,  K. B. Whaley,  H. L. Woodcock III,  P. M. Zimmerman,  
 S. Faraji,  P. M. W. Gill,  M. Head-Gordon,  J. M. Herbert,  A. I. Krylov

 Additional authors for Version 5.4.1: 
 S. Kotaru,  Shaozhi Li,  Xiangyuan Li,  F. Matz,  A. Molle,  Haisheng Ren,  
 Yingli Su,  Hung-Yi Tsai,  C. Utku,  Fang Wang

 Contributors to earlier versions of Q-Chem not listed above: 
 R. D. Adamson,  B. Austin,  R. Baer,  J. Baker,  G. J. O. Beran,  
 K. Brandhorst,  S. T. Brown,  E. F. C. Byrd,  A. K. Chakraborty,  
 G. K. L. Chan,  Chun-Min Chang,  Yunqing Chen,  C.-L. Cheng,  
 Siu Hung Chien,  D. M. Chipman,  D. L. Crittenden,  H. Dachsel,  
 R. J. Doerksen,  A. D. Dutoi,  R. G. Edgar,  J. Fosso-Tande,  
 L. Fusti-Molnar,  D. Ghosh,  A. Ghysels,  A. Golubeva-Zadorozhnaya,  
 J. Gonthier,  M. S. Gordon,  S. R. Gwaltney,  G. Hawkins,  J. E. Herr,  
 A. Heyden,  S. Hirata,  E. G. Hohenstein,  G. Kedziora,  F. J. Keil,  
 C. Kelley,  Jihan Kim,  R. A. King,  R. Z. Khaliullin,  P. P. Korambath,  
 W. Kurlancheek,  A. Laurent,  A. M. Lee,  M. S. Lee,  S. V. Levchenko,  
 Ching Yeh Lin,  D. Liotard,  E. Livshits,  R. C. Lochan,  I. Lotan,  
 L. A. Martinez-Martinez,  P. E. Maslen,  N. Nair,  D. P. O'Neill,  
 D. Neuhauser,  E. Neuscamman,  C. M. Oana,  R. Olivares-Amaya,  R. Olson,  
 T. M. Perrine,  B. Peters,  P. A. Pieniazek,  A. Prociuk,  Y. M. Rhee,  
 J. Ritchie,  M. A. Rohrdanz,  E. Rosta,  N. J. Russ,  H. F. Schaefer III,  
 M. W. Schmidt,  N. E. Schultz,  S. Sharma,  N. Shenvi,  C. D. Sherrill,  
 A. C. Simmonett,  A. Sodt,  T. Stein,  D. Stuck,  K. S. Thanthiriwatte,  
 V. Vanovschi,  L. Vogt,  Tao Wang,  A. Warshel,  M. A. Watson,  
 C. F. Williams,  Q. Wu,  X. Xu,  Jun Yang,  W. Zhang,  Yan Zhao

 Please cite Q-Chem as follows:
 Y. Shao et al., Mol. Phys. 113, 184-215 (2015)
 DOI: 10.1080/00268976.2014.952696

 Q-Chem 5.4.1 for Intel X86 EM64T Linux

 Parts of Q-Chem use Armadillo 9.800.1 (Horizon Scraper).
 http://arma.sourceforge.net/

 Q-Chem begins on Sun May 22 16:32:44 2022  

 Host: gadi-cpu-clx-1585.gadi.nci.org.au
0

     Scratch files written to /jobfs/40922068.gadi-pbs/qchem3358775//
 Processing $rem in /apps/qchem/5.4.1/config/preferences:
 Processing $rem in /home/561/yj5695/.qchemrc:
 Symmetry turned off for PCM/SM12/SMD calculation
 Method-specific promolecule density matrix will be built for SM12 calculation

 Checking the input file for inconsistencies... 	...done.

--------------------------------------------------------------
User input:
--------------------------------------------------------------
$molecule
-1  1
C -1.293146  0.700569 -0.836264
C -2.471427  0.625916 -1.58131
H -3.417769  0.400986 -1.095957
C -2.428997  0.847692 -2.951912
H -3.3396  0.798398 -3.540737
C -1.21242  1.128907 -3.584588
C -1.232989  1.365258 -5.065258
C -0.039882  1.201116 -2.828629
H  0.91038  1.449622 -3.292735
C -0.078857  0.98789 -1.450935
H  0.829234  1.057287 -0.861259
S -1.369392  0.357516  0.932959
O -0.030012  0.730854  1.459391
O -2.474681  1.247511  1.404632
N -1.609265 -1.168924  1.165398
H -2.57717 -1.378846  0.905586
N -0.107295  1.117196 -5.747286
O -2.263611  1.770849 -5.631852
C -0.034599  1.326262 -7.183561
H  0.97681  1.092474 -7.512825
H -0.262352  2.366447 -7.429814
H -0.74302  0.678046 -7.707287
H  0.690229  0.714163 -5.271856
$end

$rem
jobtype sp
exchange M062X
basis 6-31+G*
xc_grid 1
SMX_GAS_PHASE = TRUE
solvent_method sm12
$end

$smx
solvent water
charges mk
$end
--------------------------------------------------------------
 ----------------------------------------------------------------
             Standard Nuclear Orientation (Angstroms)
    I     Atom           X                Y                Z
 ----------------------------------------------------------------
    1      C      -1.2931460000     0.7005690000    -0.8362640000
    2      C      -2.4714270000     0.6259160000    -1.5813100000
    3      H      -3.4177690000     0.4009860000    -1.0959570000
    4      C      -2.4289970000     0.8476920000    -2.9519120000
    5      H      -3.3396000000     0.7983980000    -3.5407370000
    6      C      -1.2124200000     1.1289070000    -3.5845880000
    7      C      -1.2329890000     1.3652580000    -5.0652580000
    8      C      -0.0398820000     1.2011160000    -2.8286290000
    9      H       0.9103800000     1.4496220000    -3.2927350000
   10      C      -0.0788570000     0.9878900000    -1.4509350000
   11      H       0.8292340000     1.0572870000    -0.8612590000
   12      S      -1.3693920000     0.3575160000     0.9329590000
   13      O      -0.0300120000     0.7308540000     1.4593910000
   14      O      -2.4746810000     1.2475110000     1.4046320000
   15      N      -1.6092650000    -1.1689240000     1.1653980000
   16      H      -2.5771700000    -1.3788460000     0.9055860000
   17      N      -0.1072950000     1.1171960000    -5.7472860000
   18      O      -2.2636110000     1.7708490000    -5.6318520000
   19      C      -0.0345990000     1.3262620000    -7.1835610000
   20      H       0.9768100000     1.0924740000    -7.5128250000
   21      H      -0.2623520000     2.3664470000    -7.4298140000
   22      H      -0.7430200000     0.6780460000    -7.7072870000
   23      H       0.6902290000     0.7141630000    -5.2718560000
 ----------------------------------------------------------------
 Nuclear Repulsion Energy =         983.35445381 hartrees
 There are       56 alpha and       56 beta electrons
 Requested basis set is 6-31+G(d)
 There are 89 shells and 288 basis functions

 Total QAlloc Memory Limit   2000 MB
 Mega-Array Size       188 MB
 MEM_STATIC part       192 MB
 A cutoff of  1.0D-08 yielded   2891 shell pairs
 There are     32578 function pairs
 Smallest overlap matrix eigenvalue = 1.39E-06

 Q-Chem warning in module stvman/mkSTV.C, line 323:

 Overlap eigenvalue is smaller than square root of threshold
 Use THRESH >= 12 to get rid of this warning


 Scale SEOQF with 1.000000e-01/1.000000e-01/1.000000e-02

 Standard Electronic Orientation quadrupole field applied
 Nucleus-field energy     =     0.0000000035 hartrees
 ================ Generating on-the-fly Promolecule Density  ================
Attempting to make child job directory: /jobfs/40922068.gadi-pbs/qchem3358775//Frg1/
Attempting to make child job directory: /jobfs/40922068.gadi-pbs/qchem3358775//Frg2/
Attempting to make child job directory: /jobfs/40922068.gadi-pbs/qchem3358775//Frg3/
Attempting to make child job directory: /jobfs/40922068.gadi-pbs/qchem3358775//Frg4/
Attempting to make child job directory: /jobfs/40922068.gadi-pbs/qchem3358775//Frg5/
Creating input file /jobfs/40922068.gadi-pbs/qchem3358775/Frg1.input
using default PutDataFrgm: nothing
calling putenv with: QCSCRATCH=/jobfs/40922068.gadi-pbs/qchem3358775/ 
Spawning Job For Fragment 0
Done Job For Fragment 0
calling putenv with: QCSCRATCH=/jobfs/40922068.gadi-pbs 
calling putenv with: QCTHREADS=16 
Creating input file /jobfs/40922068.gadi-pbs/qchem3358775/Frg2.input
using default PutDataFrgm: nothing
calling putenv with: QCSCRATCH=/jobfs/40922068.gadi-pbs/qchem3358775/ 
Spawning Job For Fragment 1
Done Job For Fragment 1
calling putenv with: QCSCRATCH=/jobfs/40922068.gadi-pbs 
calling putenv with: QCTHREADS=16 
Creating input file /jobfs/40922068.gadi-pbs/qchem3358775/Frg3.input
using default PutDataFrgm: nothing
calling putenv with: QCSCRATCH=/jobfs/40922068.gadi-pbs/qchem3358775/ 
Spawning Job For Fragment 2
Done Job For Fragment 2
calling putenv with: QCSCRATCH=/jobfs/40922068.gadi-pbs 
calling putenv with: QCTHREADS=16 
Creating input file /jobfs/40922068.gadi-pbs/qchem3358775/Frg4.input
using default PutDataFrgm: nothing
calling putenv with: QCSCRATCH=/jobfs/40922068.gadi-pbs/qchem3358775/ 
Spawning Job For Fragment 3
Done Job For Fragment 3
calling putenv with: QCSCRATCH=/jobfs/40922068.gadi-pbs 
calling putenv with: QCTHREADS=16 
Creating input file /jobfs/40922068.gadi-pbs/qchem3358775/Frg5.input
using default PutDataFrgm: nothing
calling putenv with: QCSCRATCH=/jobfs/40922068.gadi-pbs/qchem3358775/ 
Spawning Job For Fragment 4
Done Job For Fragment 4
calling putenv with: QCSCRATCH=/jobfs/40922068.gadi-pbs 
calling putenv with: QCTHREADS=16 
 Time for running child jobs:  CPU 2.19 s  wall 2.08 s
 ============= Method Specific Promolecule Density Constructed =============
 Guess from superposition of atomic densities
 Warning:  Energy on first SCF cycle will be non-variational
 SAD guess density has 111.000000 electrons

 -----------------------------------------------------------------------
  General SCF calculation program by
  Eric Jon Sundstrom, Paul Horn, Yuezhi Mao, Dmitri Zuev, Alec White,
  David Stuck, Shaama M.S., Shane Yost, Joonho Lee, David Small,
  Daniel Levine, Susi Lehtola, Hugh Burton, Evgeny Epifanovsky,
  Bang C. Huynh
 -----------------------------------------------------------------------
 Exchange:     0.5400 Hartree-Fock + 1.0000 M06-2X
 Correlation:  1.0000 M06-2X
 Using SG-1 standard quadrature grid
 using 16 threads for integral computing
 -------------------------------------------------------
 OpenMP Integral computing Module                
 Release: version 1.0, May 2013, Q-Chem Inc. Pittsburgh 
 -------------------------------------------------------
 A restricted SCF calculation will be
 performed using DIIS
 SCF converges when DIIS error is below 1.0e-05
 ---------------------------------------
  Cycle       Energy         DIIS error
 ---------------------------------------
    1   -1047.4515616902      4.48e-02  
    2   -1043.0119809788      6.14e-03  
    3   -1042.8004824701      8.39e-03  
    4   -1043.3431746948      1.01e-03  
    5   -1043.3512891258      4.45e-04  
    6   -1043.3528885572      1.11e-04  
    7   -1043.3530110142      3.74e-05  
    8   -1043.3530239325      1.35e-05  
    9   -1043.3530261721      6.21e-06  Convergence criterion met
 ---------------------------------------
 SCF time:   CPU 77.15s  wall 4.00s 
 SCF   energy in the final basis set =    -1043.3530261721
 Total energy in the final basis set =    -1043.3530261721
 Exchange:     0.5400 Hartree-Fock + 1.0000 M06-2X
 Correlation:  1.0000 M06-2X
 Using SG-1 standard quadrature grid
 
 SM12 calculation using Merz-Singh-Kollman charges
 Citation of the SM12 model:
 Marenich, A.V.; Cramer, C.J.; Truhlar, D.G.
 J. Chem. Theory Comput. 2013, 9, 609-612.
 iSolventCode=           1
 Solvent: water                                                           
 
  Building new vdw surfaces
         Merz-Kollman ESP Net Atomic Charges

     Atom                 Charge (a.u.)
  ----------------------------------------
      1 C                    -0.161585
      2 C                    -0.069332
      3 H                     0.125815
      4 C                    -0.088712
      5 H                     0.119045
      6 C                    -0.218179
      7 C                     0.664078
      8 C                    -0.149717
      9 H                     0.099038
     10 C                    -0.050177
     11 H                     0.136655
     12 S                     1.150278
     13 O                    -0.629265
     14 O                    -0.676715
     15 N                    -0.989647
     16 H                     0.342190
     17 N                    -0.401647
     18 O                    -0.575365
     19 C                    -0.449369
     20 H                     0.170135
     21 H                     0.175643
     22 H                     0.163601
     23 H                     0.313232
  ----------------------------------------
  Sum of atomic charges =    -1.000000

  Related Dipole Moment =    10.4504 (X  8.8006 Y -3.3748 Z -4.5135)


 Charges (in A.U.) from Merz-Kollman fitting 
 -----------------------------------------------
 Center     Atomic                  MZ       
 Number     Number                  Charge
 -----------------------------------------------
    1          6                   -0.161585
    2          6                   -0.069332
    3          1                    0.125815
    4          6                   -0.088712
    5          1                    0.119045
    6          6                   -0.218179
    7          6                    0.664078
    8          6                   -0.149717
    9          1                    0.099038
   10          6                   -0.050177
   11          1                    0.136655
   12         16                    1.150278
   13          8                   -0.629265
   14          8                   -0.676715
   15          7                   -0.989647
   16          1                    0.342190
   17          7                   -0.401647
   18          8                   -0.575365
   19          6                   -0.449369
   20          1                    0.170135
   21          1                    0.175643
   22          1                    0.163601
   23          1                    0.313232
 -----------------------------------------------
 A restricted SCF calculation will be
 performed using Roothaan-Hall, DIIS
 SCF converges when DIIS error is below 1.0e-05
 ---------------------------------------
  Cycle       Energy         DIIS error
 ---------------------------------------
         Merz-Kollman ESP Net Atomic Charges

     Atom                 Charge (a.u.)
  ----------------------------------------
      1 C                    -0.184764
      2 C                    -0.107104
      3 H                     0.146410
      4 C                    -0.081066
      5 H                     0.132243
      6 C                    -0.169811
      7 C                     0.688032
      8 C                    -0.132941
      9 H                     0.134605
     10 C                    -0.072541
     11 H                     0.145595
     12 S                     1.178599
     13 O                    -0.672874
     14 O                    -0.717470
     15 N                    -1.050319
     16 H                     0.370598
     17 N                    -0.380733
     18 O                    -0.651965
     19 C                    -0.452140
     20 H                     0.194139
     21 H                     0.178056
     22 H                     0.166757
     23 H                     0.338696
  ----------------------------------------
  Sum of atomic charges =    -1.000000

  Related Dipole Moment =    12.8523 (X  9.9538 Y -3.2440 Z -7.4552)


 Charges (in A.U.) from Merz-Kollman fitting 
 -----------------------------------------------
 Center     Atomic                  MZ       
 Number     Number                  Charge
 -----------------------------------------------
    1          6                   -0.184764
    2          6                   -0.107104
    3          1                    0.146410
    4          6                   -0.081066
    5          1                    0.132243
    6          6                   -0.169811
    7          6                    0.688032
    8          6                   -0.132941
    9          1                    0.134605
   10          6                   -0.072541
   11          1                    0.145595
   12         16                    1.178599
   13          8                   -0.672874
   14          8                   -0.717470
   15          7                   -1.050319
   16          1                    0.370598
   17          7                   -0.380733
   18          8                   -0.651965
   19          6                   -0.452140
   20          1                    0.194139
   21          1                    0.178056
   22          1                    0.166757
   23          1                    0.338696
 -----------------------------------------------
    1   -1043.3530263833      6.00e-04  Roothaan Step
 ---------------------------------------
  Cycle       Energy         DIIS error
 ---------------------------------------
         Merz-Kollman ESP Net Atomic Charges

     Atom                 Charge (a.u.)
  ----------------------------------------
      1 C                    -0.139614
      2 C                    -0.094821
      3 H                     0.143997
      4 C                    -0.105713
      5 H                     0.140346
      6 C                    -0.166352
      7 C                     0.660824
      8 C                    -0.192809
      9 H                     0.155820
     10 C                    -0.064510
     11 H                     0.144470
     12 S                     1.207598
     13 O                    -0.682539
     14 O                    -0.731878
     15 N                    -1.063665
     16 H                     0.361479
     17 N                    -0.433702
     18 O                    -0.599996
     19 C                    -0.445932
     20 H                     0.200516
     21 H                     0.184043
     22 H                     0.173701
     23 H                     0.348737
  ----------------------------------------
  Sum of atomic charges =    -1.000000

  Related Dipole Moment =    12.7382 (X  9.6525 Y -3.0333 Z -7.7388)


 Charges (in A.U.) from Merz-Kollman fitting 
 -----------------------------------------------
 Center     Atomic                  MZ       
 Number     Number                  Charge
 -----------------------------------------------
    1          6                   -0.139614
    2          6                   -0.094821
    3          1                    0.143997
    4          6                   -0.105713
    5          1                    0.140346
    6          6                   -0.166352
    7          6                    0.660824
    8          6                   -0.192809
    9          1                    0.155820
   10          6                   -0.064510
   11          1                    0.144470
   12         16                    1.207598
   13          8                   -0.682539
   14          8                   -0.731878
   15          7                   -1.063665
   16          1                    0.361479
   17          7                   -0.433702
   18          8                   -0.599996
   19          6                   -0.445932
   20          1                    0.200516
   21          1                    0.184043
   22          1                    0.173701
   23          1                    0.348737
 -----------------------------------------------
    1   -1043.3406843115      4.21e-04  
         Merz-Kollman ESP Net Atomic Charges

     Atom                 Charge (a.u.)
  ----------------------------------------
      1 C                    -0.173736
      2 C                    -0.098713
      3 H                     0.145612
      4 C                    -0.099623
      5 H                     0.138651
      6 C                    -0.150279
      7 C                     0.678907
      8 C                    -0.171286
      9 H                     0.150341
     10 C                    -0.063663
     11 H                     0.144322
     12 S                     1.215724
     13 O                    -0.686804
     14 O                    -0.734234
     15 N                    -1.069640
     16 H                     0.366170
     17 N                    -0.402387
     18 O                    -0.639815
     19 C                    -0.454309
     20 H                     0.201374
     21 H                     0.184231
     22 H                     0.173961
     23 H                     0.345199
  ----------------------------------------
  Sum of atomic charges =    -1.000000

  Related Dipole Moment =    13.1868 (X  9.9832 Y -3.0847 Z -8.0444)


 Charges (in A.U.) from Merz-Kollman fitting 
 -----------------------------------------------
 Center     Atomic                  MZ       
 Number     Number                  Charge
 -----------------------------------------------
    1          6                   -0.173736
    2          6                   -0.098713
    3          1                    0.145612
    4          6                   -0.099623
    5          1                    0.138651
    6          6                   -0.150279
    7          6                    0.678907
    8          6                   -0.171286
    9          1                    0.150341
   10          6                   -0.063663
   11          1                    0.144322
   12         16                    1.215724
   13          8                   -0.686804
   14          8                   -0.734234
   15          7                   -1.069640
   16          1                    0.366170
   17          7                   -0.402387
   18          8                   -0.639815
   19          6                   -0.454309
   20          1                    0.201374
   21          1                    0.184231
   22          1                    0.173961
   23          1                    0.345199
 -----------------------------------------------
    2   -1043.3410531163      4.99e-04  
         Merz-Kollman ESP Net Atomic Charges

     Atom                 Charge (a.u.)
  ----------------------------------------
      1 C                    -0.178101
      2 C                    -0.095222
      3 H                     0.145698
      4 C                    -0.101908
      5 H                     0.139845
      6 C                    -0.146228
      7 C                     0.671957
      8 C                    -0.173017
      9 H                     0.152186
     10 C                    -0.061530
     11 H                     0.144443
     12 S                     1.217141
     13 O                    -0.688639
     14 O                    -0.736200
     15 N                    -1.073736
     16 H                     0.367599
     17 N                    -0.405540
     18 O                    -0.633964
     19 C                    -0.452746
     20 H                     0.202321
     21 H                     0.184714
     22 H                     0.174541
     23 H                     0.346386
  ----------------------------------------
  Sum of atomic charges =    -1.000000

  Related Dipole Moment =    13.2826 (X  9.9723 Y -3.0465 Z -8.2280)


 Charges (in A.U.) from Merz-Kollman fitting 
 -----------------------------------------------
 Center     Atomic                  MZ       
 Number     Number                  Charge
 -----------------------------------------------
    1          6                   -0.178101
    2          6                   -0.095222
    3          1                    0.145698
    4          6                   -0.101908
    5          1                    0.139845
    6          6                   -0.146228
    7          6                    0.671957
    8          6                   -0.173017
    9          1                    0.152186
   10          6                   -0.061530
   11          1                    0.144443
   12         16                    1.217141
   13          8                   -0.688639
   14          8                   -0.736200
   15          7                   -1.073736
   16          1                    0.367599
   17          7                   -0.405540
   18          8                   -0.633964
   19          6                   -0.452746
   20          1                    0.202321
   21          1                    0.184714
   22          1                    0.174541
   23          1                    0.346386
 -----------------------------------------------
    3   -1043.3395137470      7.69e-05  
         Merz-Kollman ESP Net Atomic Charges

     Atom                 Charge (a.u.)
  ----------------------------------------
      1 C                    -0.178167
      2 C                    -0.093711
      3 H                     0.145594
      4 C                    -0.105127
      5 H                     0.140776
      6 C                    -0.142259
      7 C                     0.672425
      8 C                    -0.178269
      9 H                     0.153784
     10 C                    -0.059776
     11 H                     0.144317
     12 S                     1.219853
     13 O                    -0.689522
     14 O                    -0.737437
     15 N                    -1.075270
     16 H                     0.366919
     17 N                    -0.404830
     18 O                    -0.636054
     19 C                    -0.454117
     20 H                     0.203182
     21 H                     0.185501
     22 H                     0.175447
     23 H                     0.346742
  ----------------------------------------
  Sum of atomic charges =    -1.000000

  Related Dipole Moment =    13.3375 (X 10.0009 Y -3.0366 Z -8.2856)


 Charges (in A.U.) from Merz-Kollman fitting 
 -----------------------------------------------
 Center     Atomic                  MZ       
 Number     Number                  Charge
 -----------------------------------------------
    1          6                   -0.178167
    2          6                   -0.093711
    3          1                    0.145594
    4          6                   -0.105127
    5          1                    0.140776
    6          6                   -0.142259
    7          6                    0.672425
    8          6                   -0.178269
    9          1                    0.153784
   10          6                   -0.059776
   11          1                    0.144317
   12         16                    1.219853
   13          8                   -0.689522
   14          8                   -0.737437
   15          7                   -1.075270
   16          1                    0.366919
   17          7                   -0.404830
   18          8                   -0.636054
   19          6                   -0.454117
   20          1                    0.203182
   21          1                    0.185501
   22          1                    0.175447
   23          1                    0.346742
 -----------------------------------------------
    4   -1043.3387326756      4.14e-05  
    5   -1043.3383302257      6.85e-06  Convergence criterion met
 ---------------------------------------
 SCF time:   CPU 78.26s  wall 5.00s 
(0)  E-EN(g) gas-phase elect-nuc energy                -1043.353026172 a.u.
(1)  E-EN(liq) elect-nuc energy of solute              -1043.338330226 a.u.
(2)  G-P(liq) polarization free energy of solvation           -85.9330 kcal/mol
(3)  G-ENP(liq) elect-nuc-pol free energy of system    -1043.475273258 a.u.
(4)  G-CDS(liq) cavity-dispersion-solvent structure 
     free energy                                                2.3053 kcal/mol
(5)  G-P-CDS(liq) = G-P(liq) + G-CDS(liq) = (2) + (4)         -83.6278 kcal/mol
(6)  G-S(liq) free energy of system = (1) + (5)        -1043.471599561 a.u.
(7)  DeltaE-EN(liq) elect-nuc reorganization
     energy of solute molecule (7) = (1) - (0)                  9.2218 kcal/mol
(8)  DeltaG-ENP(liq) elect-nuc-pol free energy
     of solvation (8) = (3) - (0)                             -76.7112 kcal/mol
(9)  DeltaG-S(liq) free energy of  solvation
     (9) = (6) - (0)                                          -74.4059 kcal/mol
 SCF   energy in the final basis set =    -1043.4715995611
 Total energy in the final basis set =    -1043.4715995611
 
 --------------------------------------------------------------
 
                    Orbital Energies (a.u.)
 --------------------------------------------------------------
 
 Alpha MOs
 -- Occupied --
-90.1427 -19.6287 -19.6270 -19.6269 -14.8059 -14.7323 -10.6719 -10.5961
-10.5872 -10.5851 -10.5825 -10.5822 -10.5806 -10.5789  -8.4510  -6.3733
 -6.3726  -6.3719  -1.2158  -1.1711  -1.1006  -1.0461  -0.9922  -0.9736
 -0.8891  -0.8710  -0.8141  -0.7500  -0.7154  -0.6905  -0.6703  -0.6411
 -0.6021  -0.5667  -0.5625  -0.5458  -0.5392  -0.5335  -0.5190  -0.5157
 -0.5097  -0.4788  -0.4656  -0.4609  -0.4517  -0.4312  -0.4244  -0.4021
 -0.3838  -0.3728  -0.3547  -0.3435  -0.3365  -0.3317  -0.3283  -0.3006
 -- Virtual --
 -0.0321  -0.0254  -0.0149  -0.0039  -0.0014   0.0001   0.0108   0.0170
  0.0254   0.0343   0.0382   0.0477   0.0575   0.0598   0.0673   0.0696
  0.0758   0.0792   0.0846   0.0960   0.0974   0.1026   0.1104   0.1157
  0.1180   0.1338   0.1369   0.1428   0.1478   0.1510   0.1558   0.1639
  0.1693   0.1729   0.1755   0.1879   0.1912   0.1985   0.2023   0.2065
  0.2143   0.2189   0.2274   0.2340   0.2360   0.2401   0.2423   0.2465
  0.2489   0.2538   0.2600   0.2635   0.2673   0.2716   0.2773   0.2785
  0.2851   0.2884   0.2939   0.2995   0.3048   0.3156   0.3200   0.3227
  0.3307   0.3360   0.3429   0.3509   0.3558   0.3630   0.3753   0.3830
  0.3940   0.3962   0.4070   0.4168   0.4303   0.4744   0.4838   0.5010
  0.5434   0.5753   0.5921   0.6039   0.6624   0.6765   0.6954   0.7083
  0.7167   0.7230   0.7250   0.7391   0.7515   0.7669   0.7777   0.7836
  0.8019   0.8084   0.8242   0.8336   0.8482   0.8582   0.8740   0.9029
  0.9120   0.9446   0.9492   0.9618   0.9750   0.9948   1.0140   1.0183
  1.0250   1.0395   1.0557   1.0607   1.0743   1.0904   1.0944   1.1064
  1.1115   1.1206   1.1267   1.1582   1.1620   1.1779   1.1933   1.2002
  1.2142   1.2452   1.2517   1.2601   1.3023   1.3163   1.3285   1.3475
  1.3545   1.3671   1.3885   1.3970   1.3980   1.4013   1.4128   1.4175
  1.4313   1.4441   1.4531   1.4618   1.5012   1.5090   1.5235   1.5274
  1.5477   1.5538   1.5688   1.6051   1.6233   1.6962   1.7224   1.7814
  1.7966   1.8059   1.8305   1.8334   1.8531   1.8792   1.8845   1.8912
  1.9043   1.9231   1.9330   1.9659   1.9868   1.9969   2.0051   2.0210
  2.0450   2.0574   2.0789   2.0805   2.1328   2.1401   2.1603   2.1671
  2.1733   2.1857   2.2058   2.2189   2.2588   2.2679   2.2957   2.3121
  2.3187   2.3378   2.3708   2.3982   2.4068   2.4310   2.5027   2.5553
  2.5698   2.6192   2.6389   2.6540   2.6891   2.7165   2.7405   2.7516
  2.7908   2.8082   2.8682   2.9070   2.9255   2.9707   3.1091   3.1567
  3.2565   3.4054   3.9744   4.0865   4.1232   4.2399   4.2502   4.2863
  4.3034   4.3329   4.3612   4.3933   4.4121   4.4622   4.6227   4.7506
 --------------------------------------------------------------
 
          Ground-State Mulliken Net Atomic Charges

     Atom                 Charge (a.u.)
  ----------------------------------------
      1 C                    -4.559219
      2 C                    -0.024368
      3 H                     0.257038
      4 C                     0.479612
      5 H                     0.280257
      6 C                     1.508782
      7 C                     1.701903
      8 C                     2.599568
      9 H                     0.294961
     10 C                    -2.086342
     11 H                     0.266189
     12 S                     0.462393
     13 O                    -0.882119
     14 O                    -0.728295
     15 N                    -0.947300
     16 H                     0.399065
     17 N                    -0.288833
     18 O                    -0.828878
     19 C                    -0.127704
     20 H                     0.271145
     21 H                     0.234991
     22 H                     0.232488
     23 H                     0.484667
  ----------------------------------------
  Sum of atomic charges =    -1.000000

         Merz-Kollman ESP Net Atomic Charges

     Atom                 Charge (a.u.)
  ----------------------------------------
      1 C                    -0.179317
      2 C                    -0.093272
      3 H                     0.145520
      4 C                    -0.105619
      5 H                     0.140797
      6 C                    -0.141199
      7 C                     0.672033
      8 C                    -0.178446
      9 H                     0.153740
     10 C                    -0.059332
     11 H                     0.144223
     12 S                     1.222596
     13 O                    -0.690263
     14 O                    -0.738196
     15 N                    -1.076251
     16 H                     0.366816
     17 N                    -0.404891
     18 O                    -0.635854
     19 C                    -0.454462
     20 H                     0.203296
     21 H                     0.185708
     22 H                     0.175666
     23 H                     0.346707
  ----------------------------------------
  Sum of atomic charges =    -1.000000

  Related Dipole Moment =    13.3463 (X 10.0021 Y -3.0313 Z -8.3001)

 -----------------------------------------------------------------
                    Cartesian Multipole Moments
 -----------------------------------------------------------------
    Charge (ESU x 10^10)
                -4.8032
    Dipole Moment (Debye)
         X       9.9949      Y      -2.9543      Z      -8.2890
       Tot      13.3166
    Quadrupole Moments (Debye-Ang)
        XX    -107.6726     XY      14.9069     YY    -108.5813
        XZ     -18.1076     YZ       5.6219     ZZ    -104.9369
    Octopole Moments (Debye-Ang^2)
       XXX     362.7232    XXY    -115.3554    XYY     144.2810
       YYY    -237.2294    XXZ     205.5531    XYZ     -45.2112
       YYZ     201.6456    XZZ     296.2134    YZZ    -124.2940
       ZZZ     492.9648
    Hexadecapole Moments (Debye-Ang^3)
      XXXX   -1466.8357   XXXY     353.2692   XXYY    -439.0583
      XYYY     280.9955   YYYY    -794.6669   XXXZ    -531.5516
      XXYZ     355.8194   XYYZ    -236.6000   YYYZ     862.5906
      XXZZ   -1757.1443   XYZZ     386.7283   YYZZ   -1464.6304
      XZZZ   -1432.0024   YZZZ    1010.1969   ZZZZ   -6466.6951
 -----------------------------------------------------------------
 Total job time:  12.43s(wall), 163.96s(cpu) 
 Sun May 22 16:32:57 2022

        *************************************************************
        *                                                           *
        *  Thank you very much for using Q-Chem.  Have a nice day.  *
        *                                                           *
        *************************************************************


