                  Welcome to Q-Chem
     A Quantum Leap Into The Future Of Chemistry


 Q-Chem 5.4 (devel), Q-Chem, Inc., Pleasanton, CA (2021)

 E. Epifanovsky,  A. T. B. Gilbert,  Xintian Feng,  Joonho Lee,  Yuezhi Mao,  
 N. Mardirossian,  P. Pokhilko,  A. White,  M. Wormit,  M. P. Coons,  
 A. L. Dempwolff,  Zhengting Gan,  D. Hait,  P. R. Horn,  L. D. Jacobson,  
 I. Kaliman,  J. Kussmann,  A. W. Lange,  Ka Un Lao,  D. S. Levine,  Jie Liu,  
 S. C. McKenzie,  A. F. Morrison,  K. Nanda,  F. Plasser,  D. R. Rehn,  
 M. L. Vidal,  Zhi-Qiang You,  Ying Zhu,  B. Alam,  B. Albrecht,  
 A. Aldossary,  E. Alguire,  J. H. Andersen,  D. Barton,  K. Begam,  A. Behn,  
 Y. A. Bernard,  E. J. Berquist,  H. Burton,  A. Carreras,  K. Carter-Fenk,  
 R. Chakraborty,  A. D. Chien,  K. D. Closser,  V. Cofer-Shabica,  
 S. Dasgupta,  Jia Deng,  M. de Wergifosse,  M. Diedenhofen,  Hainam Do,  
 S. Ehlert,  Po-Tung Fang,  S. Fatehi,  Qingguo Feng,  T. Friedhoff,  
 J. Gayvert,  Qinghui Ge,  G. Gidofalvi,  M. Goldey,  J. Gomes,  
 C. Gonzalez-Espinoza,  S. Gulania,  A. Gunina,  M. W. D. Hanson-Heine,  
 P. H. P. Harbach,  A. W. Hauser,  M. F. Herbst,  M. Hernandez Vera,  
 M. Hodecker,  Z. C. Holden,  S. Houck,  Xunkun Huang,  Kerwin Hui,  
 B. C. Huynh,  M. Ivanov,  Hyunjun Ji,  Hanjie Jiang,  B. Kaduk,  S. Kaehler,  
 K. Khistyaev,  Jaehoon Kim,  P. Klunzinger,  Z. Koczor-Benda,  
 Joong Hoon Koh,  D. Kosenkov,  L. Koulias,  T. Kowalczyk,  C. M. Krauter,  
 K. Kue,  A. Kunitsa,  T. Kus,  A. Landau,  K. V. Lawler,  D. Lefrancois,  
 S. Lehtola,  Rain Li,  Yi-Pei Li,  Jiashu Liang,  M. Liebenthal,  
 Hung-Hsuan Lin,  You-Sheng Lin,  Fenglai Liu,  Kuan-Yu Liu,  
 M. Loipersberger,  A. Luenser,  A. Manjanath,  P. Manohar,  E. Mansoor,  
 S. F. Manzer,  Shan-Ping Mao,  A. V. Marenich,  T. Markovich,  S. Mason,  
 S. A. Maurer,  P. F. McLaughlin,  M. F. S. J. Menger,  J.-M. Mewes,  
 S. A. Mewes,  P. Morgante,  J. W. Mullinax,  K. J. Oosterbaan,  G. Paran,  
 Alexander C. Paul,  Suranjan K. Paul,  F. Pavosevic,  Zheng Pei,  S. Prager,  
 E. I. Proynov,  E. Ramos,  B. Rana,  A. E. Rask,  A. Rettig,  R. M. Richard,  
 F. Rob,  E. Rossomme,  T. Scheele,  M. Scheurer,  M. Schneider,  
 N. Sergueev,  S. M. Sharada,  W. Skomorowski,  D. W. Small,  C. J. Stein,  
 Yu-Chuan Su,  E. J. Sundstrom,  Zhen Tao,  J. Thirman,  T. Tsuchimochi,  
 N. M. Tubman,  S. P. Veccham,  O. Vydrov,  J. Wenzel,  J. Witte,  A. Yamada,  
 Kun Yao,  S. Yeganeh,  S. R. Yost,  A. Zech,  Igor Ying Zhang,  Xing Zhang,  
 Yu Zhang,  D. Zuev,  A. Aspuru-Guzik,  A. T. Bell,  N. A. Besley,  
 K. B. Bravaya,  B. R. Brooks,  D. Casanova,  Jeng-Da Chai,  S. Coriani,  
 C. J. Cramer,  A. E. DePrince, III,  R. A. DiStasio Jr.,  A. Dreuw,  
 B. D. Dunietz,  T. R. Furlani,  W. A. Goddard III,  S. Grimme,  
 S. Hammes-Schiffer,  T. Head-Gordon,  W. J. Hehre,  Chao-Ping Hsu,  
 T.-C. Jagau,  Yousung Jung,  A. Klamt,  Jing Kong,  D. S. Lambrecht,  
 WanZhen Liang,  N. J. Mayhall,  C. W. McCurdy,  J. B. Neaton,  
 C. Ochsenfeld,  J. A. Parkhill,  R. Peverati,  V. A. Rassolov,  Yihan Shao,  
 L. V. Slipchenko,  T. Stauch,  R. P. Steele,  J. E. Subotnik,  
 A. J. W. Thom,  A. Tkatchenko,  D. G. Truhlar,  T. Van Voorhis,  
 T. A. Wesolowski,  K. B. Whaley,  H. L. Woodcock III,  P. M. Zimmerman,  
 S. Faraji,  P. M. W. Gill,  M. Head-Gordon,  J. M. Herbert,  A. I. Krylov

 Additional authors for Version 5.4.1: 
 S. Kotaru,  Shaozhi Li,  Xiangyuan Li,  F. Matz,  A. Molle,  Haisheng Ren,  
 Yingli Su,  Hung-Yi Tsai,  C. Utku,  Fang Wang

 Contributors to earlier versions of Q-Chem not listed above: 
 R. D. Adamson,  B. Austin,  R. Baer,  J. Baker,  G. J. O. Beran,  
 K. Brandhorst,  S. T. Brown,  E. F. C. Byrd,  A. K. Chakraborty,  
 G. K. L. Chan,  Chun-Min Chang,  Yunqing Chen,  C.-L. Cheng,  
 Siu Hung Chien,  D. M. Chipman,  D. L. Crittenden,  H. Dachsel,  
 R. J. Doerksen,  A. D. Dutoi,  R. G. Edgar,  J. Fosso-Tande,  
 L. Fusti-Molnar,  D. Ghosh,  A. Ghysels,  A. Golubeva-Zadorozhnaya,  
 J. Gonthier,  M. S. Gordon,  S. R. Gwaltney,  G. Hawkins,  J. E. Herr,  
 A. Heyden,  S. Hirata,  E. G. Hohenstein,  G. Kedziora,  F. J. Keil,  
 C. Kelley,  Jihan Kim,  R. A. King,  R. Z. Khaliullin,  P. P. Korambath,  
 W. Kurlancheek,  A. Laurent,  A. M. Lee,  M. S. Lee,  S. V. Levchenko,  
 Ching Yeh Lin,  D. Liotard,  E. Livshits,  R. C. Lochan,  I. Lotan,  
 L. A. Martinez-Martinez,  P. E. Maslen,  N. Nair,  D. P. O'Neill,  
 D. Neuhauser,  E. Neuscamman,  C. M. Oana,  R. Olivares-Amaya,  R. Olson,  
 T. M. Perrine,  B. Peters,  P. A. Pieniazek,  A. Prociuk,  Y. M. Rhee,  
 J. Ritchie,  M. A. Rohrdanz,  E. Rosta,  N. J. Russ,  H. F. Schaefer III,  
 M. W. Schmidt,  N. E. Schultz,  S. Sharma,  N. Shenvi,  C. D. Sherrill,  
 A. C. Simmonett,  A. Sodt,  T. Stein,  D. Stuck,  K. S. Thanthiriwatte,  
 V. Vanovschi,  L. Vogt,  Tao Wang,  A. Warshel,  M. A. Watson,  
 C. F. Williams,  Q. Wu,  X. Xu,  Jun Yang,  W. Zhang,  Yan Zhao

 Please cite Q-Chem as follows:
 Y. Shao et al., Mol. Phys. 113, 184-215 (2015)
 DOI: 10.1080/00268976.2014.952696

 Q-Chem 5.4.1 for Intel X86 EM64T Linux

 Parts of Q-Chem use Armadillo 9.800.1 (Horizon Scraper).
 http://arma.sourceforge.net/

 Q-Chem begins on Fri May 20 20:53:39 2022  

 Host: gadi-cpu-clx-0108.gadi.nci.org.au
0

     Scratch files written to /jobfs/40771791.gadi-pbs/qchem1325631//
 Processing $rem in /apps/qchem/5.4.1/config/preferences:
 Processing $rem in /home/561/yj5695/.qchemrc:
 Symmetry turned off for PCM/SM12/SMD calculation
 Method-specific promolecule density matrix will be built for SM12 calculation

 Checking the input file for inconsistencies... 	...done.

--------------------------------------------------------------
User input:
--------------------------------------------------------------
$molecule
-1  1
C -1.2063734225  0.6076905171 -0.6320167085
S -1.7007395766  0.3669334453  1.1418235129
O -1.7839688013 -1.1116934216  1.1986599571
O -0.5522122918  0.974859472  1.8435697324
N -3.0012252183  1.1609853915  1.3816589599
H -3.7955275456  0.6063706271  1.0534668288
F -2.1714156171  0.15992818 -1.4457248774
F -0.0799616957 -0.0514528848 -0.9271311069
F -1.007682831  1.9019956734 -0.9030102983
$end

$rem
jobtype sp
exchange M062X
basis 6-31+G*
xc_grid 1
SMX_GAS_PHASE = TRUE
solvent_method sm12
$end

$smx
solvent water
charges mk
$end
--------------------------------------------------------------
 ----------------------------------------------------------------
             Standard Nuclear Orientation (Angstroms)
    I     Atom           X                Y                Z
 ----------------------------------------------------------------
    1      C      -1.2063734225     0.6076905171    -0.6320167085
    2      S      -1.7007395766     0.3669334453     1.1418235129
    3      O      -1.7839688013    -1.1116934216     1.1986599571
    4      O      -0.5522122918     0.9748594720     1.8435697324
    5      N      -3.0012252183     1.1609853915     1.3816589599
    6      H      -3.7955275456     0.6063706271     1.0534668288
    7      F      -2.1714156171     0.1599281800    -1.4457248774
    8      F      -0.0799616957    -0.0514528848    -0.9271311069
    9      F      -1.0076828310     1.9019956734    -0.9030102983
 ----------------------------------------------------------------
 Nuclear Repulsion Energy =         549.03325712 hartrees
 There are       37 alpha and       37 beta electrons
 Requested basis set is 6-31+G(d)
 There are 43 shells and 158 basis functions

 Total QAlloc Memory Limit   2000 MB
 Mega-Array Size       188 MB
 MEM_STATIC part       192 MB

                       Distance Matrix (Angstroms)
             C (  1)   S (  2)   O (  3)   O (  4)   N (  5)   H (  6)
   S (  2)  1.857114
   O (  3)  2.577067  1.482058
   O (  4)  2.586749  1.476867  2.507356
   N (  5)  2.753637  1.542499  2.584622  2.499134
   H (  6)  3.089430  2.110278  2.649376  3.358443  1.022851
   F (  7)  1.339372  2.638142  2.959714  3.755715  3.112041  3.013803
   F (  8)  1.338046  2.661304  2.923480  2.992177  3.915903  4.261564
   F (  9)  1.337214  2.649168  3.755258  2.934406  3.121381  3.643971
             F (  7)   F (  8)
   F (  8)  2.165133
   F (  9)  2.164165  2.162686
 
 A cutoff of  1.0D-08 yielded    842 shell pairs
 There are     12177 function pairs
 Smallest overlap matrix eigenvalue = 2.88E-04

 Scale SEOQF with 1.000000e-01/1.000000e-01/1.000000e-01

 Standard Electronic Orientation quadrupole field applied
 Nucleus-field energy     =     0.0000000004 hartrees
 ================ Generating on-the-fly Promolecule Density  ================
Attempting to make child job directory: /jobfs/40771791.gadi-pbs/qchem1325631//Frg1/
Attempting to make child job directory: /jobfs/40771791.gadi-pbs/qchem1325631//Frg2/
Attempting to make child job directory: /jobfs/40771791.gadi-pbs/qchem1325631//Frg3/
Attempting to make child job directory: /jobfs/40771791.gadi-pbs/qchem1325631//Frg4/
Attempting to make child job directory: /jobfs/40771791.gadi-pbs/qchem1325631//Frg5/
Attempting to make child job directory: /jobfs/40771791.gadi-pbs/qchem1325631//Frg6/
Creating input file /jobfs/40771791.gadi-pbs/qchem1325631/Frg1.input
using default PutDataFrgm: nothing
calling putenv with: QCSCRATCH=/jobfs/40771791.gadi-pbs/qchem1325631/ 
Spawning Job For Fragment 0
Done Job For Fragment 0
calling putenv with: QCSCRATCH=/jobfs/40771791.gadi-pbs 
calling putenv with: QCTHREADS=16 
Creating input file /jobfs/40771791.gadi-pbs/qchem1325631/Frg2.input
using default PutDataFrgm: nothing
calling putenv with: QCSCRATCH=/jobfs/40771791.gadi-pbs/qchem1325631/ 
Spawning Job For Fragment 1
Done Job For Fragment 1
calling putenv with: QCSCRATCH=/jobfs/40771791.gadi-pbs 
calling putenv with: QCTHREADS=16 
Creating input file /jobfs/40771791.gadi-pbs/qchem1325631/Frg3.input
using default PutDataFrgm: nothing
calling putenv with: QCSCRATCH=/jobfs/40771791.gadi-pbs/qchem1325631/ 
Spawning Job For Fragment 2
Done Job For Fragment 2
calling putenv with: QCSCRATCH=/jobfs/40771791.gadi-pbs 
calling putenv with: QCTHREADS=16 
Creating input file /jobfs/40771791.gadi-pbs/qchem1325631/Frg4.input
using default PutDataFrgm: nothing
calling putenv with: QCSCRATCH=/jobfs/40771791.gadi-pbs/qchem1325631/ 
Spawning Job For Fragment 3
Done Job For Fragment 3
calling putenv with: QCSCRATCH=/jobfs/40771791.gadi-pbs 
calling putenv with: QCTHREADS=16 
Creating input file /jobfs/40771791.gadi-pbs/qchem1325631/Frg5.input
using default PutDataFrgm: nothing
calling putenv with: QCSCRATCH=/jobfs/40771791.gadi-pbs/qchem1325631/ 
Spawning Job For Fragment 4
Done Job For Fragment 4
calling putenv with: QCSCRATCH=/jobfs/40771791.gadi-pbs 
calling putenv with: QCTHREADS=16 
Creating input file /jobfs/40771791.gadi-pbs/qchem1325631/Frg6.input
using default PutDataFrgm: nothing
calling putenv with: QCSCRATCH=/jobfs/40771791.gadi-pbs/qchem1325631/ 
Spawning Job For Fragment 5
Done Job For Fragment 5
calling putenv with: QCSCRATCH=/jobfs/40771791.gadi-pbs 
calling putenv with: QCTHREADS=16 
 Time for running child jobs:  CPU 2.25 s  wall 2.60 s
 ============= Method Specific Promolecule Density Constructed =============
 Guess from superposition of atomic densities
 Warning:  Energy on first SCF cycle will be non-variational
 SAD guess density has 73.000000 electrons

 -----------------------------------------------------------------------
  General SCF calculation program by
  Eric Jon Sundstrom, Paul Horn, Yuezhi Mao, Dmitri Zuev, Alec White,
  David Stuck, Shaama M.S., Shane Yost, Joonho Lee, David Small,
  Daniel Levine, Susi Lehtola, Hugh Burton, Evgeny Epifanovsky,
  Bang C. Huynh
 -----------------------------------------------------------------------
 Exchange:     0.5400 Hartree-Fock + 1.0000 M06-2X
 Correlation:  1.0000 M06-2X
 Using SG-1 standard quadrature grid
 using 16 threads for integral computing
 -------------------------------------------------------
 OpenMP Integral computing Module                
 Release: version 1.0, May 2013, Q-Chem Inc. Pittsburgh 
 -------------------------------------------------------
 A restricted SCF calculation will be
 performed using DIIS
 SCF converges when DIIS error is below 1.0e-05
 ---------------------------------------
  Cycle       Energy         DIIS error
 ---------------------------------------
    1    -943.1323713867      5.75e-02  
    2    -941.0891781832      1.12e-02  
    3    -940.8234238110      1.59e-02  
    4    -941.4082430821      7.16e-04  
    5    -941.4087783033      5.84e-04  
    6    -941.4095915809      1.50e-04  
    7    -941.4096518554      2.46e-05  
    8    -941.4096541068      7.67e-06  Convergence criterion met
 ---------------------------------------
 SCF time:   CPU 16.25s  wall 1.00s 
 SCF   energy in the final basis set =     -941.4096541068
 Total energy in the final basis set =     -941.4096541068
 Exchange:     0.5400 Hartree-Fock + 1.0000 M06-2X
 Correlation:  1.0000 M06-2X
 Using SG-1 standard quadrature grid
 
 SM12 calculation using Merz-Singh-Kollman charges
 Citation of the SM12 model:
 Marenich, A.V.; Cramer, C.J.; Truhlar, D.G.
 J. Chem. Theory Comput. 2013, 9, 609-612.
 iSolventCode=           1
 Solvent: water                                                           
 
  Building new vdw surfaces
         Merz-Kollman ESP Net Atomic Charges

     Atom                 Charge (a.u.)
  ----------------------------------------
      1 C                     0.252032
      2 S                     1.088403
      3 O                    -0.659293
      4 O                    -0.602855
      5 N                    -0.960068
      6 H                     0.362356
      7 F                    -0.172581
      8 F                    -0.152274
      9 F                    -0.155720
  ----------------------------------------
  Sum of atomic charges =    -1.000000

  Related Dipole Moment =     9.3025 (X  6.7428 Y -2.4645 Z -5.9159)


 Charges (in A.U.) from Merz-Kollman fitting 
 -----------------------------------------------
 Center     Atomic                  MZ       
 Number     Number                  Charge
 -----------------------------------------------
    1          6                    0.252032
    2         16                    1.088403
    3          8                   -0.659293
    4          8                   -0.602855
    5          7                   -0.960068
    6          1                    0.362356
    7          9                   -0.172581
    8          9                   -0.152274
    9          9                   -0.155720
 -----------------------------------------------
 A restricted SCF calculation will be
 performed using Roothaan-Hall, DIIS
 SCF converges when DIIS error is below 1.0e-05
 ---------------------------------------
  Cycle       Energy         DIIS error
 ---------------------------------------
         Merz-Kollman ESP Net Atomic Charges

     Atom                 Charge (a.u.)
  ----------------------------------------
      1 C                     0.292107
      2 S                     1.108896
      3 O                    -0.683683
      4 O                    -0.644953
      5 N                    -0.988180
      6 H                     0.389640
      7 F                    -0.166424
      8 F                    -0.151771
      9 F                    -0.155630
  ----------------------------------------
  Sum of atomic charges =    -1.000000

  Related Dipole Moment =     9.5400 (X  6.5068 Y -2.4501 Z -6.5322)


 Charges (in A.U.) from Merz-Kollman fitting 
 -----------------------------------------------
 Center     Atomic                  MZ       
 Number     Number                  Charge
 -----------------------------------------------
    1          6                    0.292107
    2         16                    1.108896
    3          8                   -0.683683
    4          8                   -0.644953
    5          7                   -0.988180
    6          1                    0.389640
    7          9                   -0.166424
    8          9                   -0.151771
    9          9                   -0.155630
 -----------------------------------------------
    1    -941.4096538055      4.96e-04  Roothaan Step
 ---------------------------------------
  Cycle       Energy         DIIS error
 ---------------------------------------
         Merz-Kollman ESP Net Atomic Charges

     Atom                 Charge (a.u.)
  ----------------------------------------
      1 C                     0.251732
      2 S                     1.116392
      3 O                    -0.684713
      4 O                    -0.634185
      5 N                    -0.988061
      6 H                     0.385824
      7 F                    -0.160589
      8 F                    -0.140618
      9 F                    -0.145782
  ----------------------------------------
  Sum of atomic charges =    -1.000000

  Related Dipole Moment =     9.5369 (X  6.6149 Y -2.4176 Z -6.4306)


 Charges (in A.U.) from Merz-Kollman fitting 
 -----------------------------------------------
 Center     Atomic                  MZ       
 Number     Number                  Charge
 -----------------------------------------------
    1          6                    0.251732
    2         16                    1.116392
    3          8                   -0.684713
    4          8                   -0.634185
    5          7                   -0.988061
    6          1                    0.385824
    7          9                   -0.160589
    8          9                   -0.140618
    9          9                   -0.145782
 -----------------------------------------------
    1    -941.4075052665      3.37e-04  
         Merz-Kollman ESP Net Atomic Charges

     Atom                 Charge (a.u.)
  ----------------------------------------
      1 C                     0.266588
      2 S                     1.127780
      3 O                    -0.689405
      4 O                    -0.647349
      5 N                    -0.991968
      6 H                     0.388407
      7 F                    -0.161396
      8 F                    -0.143880
      9 F                    -0.148777
  ----------------------------------------
  Sum of atomic charges =    -1.000000

  Related Dipole Moment =     9.5639 (X  6.5443 Y -2.4322 Z -6.5365)


 Charges (in A.U.) from Merz-Kollman fitting 
 -----------------------------------------------
 Center     Atomic                  MZ       
 Number     Number                  Charge
 -----------------------------------------------
    1          6                    0.266588
    2         16                    1.127780
    3          8                   -0.689405
    4          8                   -0.647349
    5          7                   -0.991968
    6          1                    0.388407
    7          9                   -0.161396
    8          9                   -0.143880
    9          9                   -0.148777
 -----------------------------------------------
    2    -941.4078648391      3.63e-04  
         Merz-Kollman ESP Net Atomic Charges

     Atom                 Charge (a.u.)
  ----------------------------------------
      1 C                     0.266401
      2 S                     1.122748
      3 O                    -0.688798
      4 O                    -0.645094
      5 N                    -0.992247
      6 H                     0.389150
      7 F                    -0.160869
      8 F                    -0.143130
      9 F                    -0.148161
  ----------------------------------------
  Sum of atomic charges =    -1.000000

  Related Dipole Moment =     9.5793 (X  6.5570 Y -2.4278 Z -6.5479)


 Charges (in A.U.) from Merz-Kollman fitting 
 -----------------------------------------------
 Center     Atomic                  MZ       
 Number     Number                  Charge
 -----------------------------------------------
    1          6                    0.266401
    2         16                    1.122748
    3          8                   -0.688798
    4          8                   -0.645094
    5          7                   -0.992247
    6          1                    0.389150
    7          9                   -0.160869
    8          9                   -0.143130
    9          9                   -0.148161
 -----------------------------------------------
    3    -941.4075945440      4.87e-05  
         Merz-Kollman ESP Net Atomic Charges

     Atom                 Charge (a.u.)
  ----------------------------------------
      1 C                     0.265210
      2 S                     1.125268
      3 O                    -0.689437
      4 O                    -0.646385
      5 N                    -0.992488
      6 H                     0.389063
      7 F                    -0.160599
      8 F                    -0.142786
      9 F                    -0.147846
  ----------------------------------------
  Sum of atomic charges =    -1.000000

  Related Dipole Moment =     9.5796 (X  6.5528 Y -2.4281 Z -6.5523)


 Charges (in A.U.) from Merz-Kollman fitting 
 -----------------------------------------------
 Center     Atomic                  MZ       
 Number     Number                  Charge
 -----------------------------------------------
    1          6                    0.265210
    2         16                    1.125268
    3          8                   -0.689437
    4          8                   -0.646385
    5          7                   -0.992488
    6          1                    0.389063
    7          9                   -0.160599
    8          9                   -0.142786
    9          9                   -0.147846
 -----------------------------------------------
    4    -941.4075372237      2.38e-05  
    5    -941.4075061151      5.05e-06  Convergence criterion met
 ---------------------------------------
 SCF time:   CPU 20.39s  wall 1.00s 
(0)  E-EN(g) gas-phase elect-nuc energy                 -941.409654107 a.u.
(1)  E-EN(liq) elect-nuc energy of solute               -941.407506115 a.u.
(2)  G-P(liq) polarization free energy of solvation           -63.9525 kcal/mol
(3)  G-ENP(liq) elect-nuc-pol free energy of system     -941.509420871 a.u.
(4)  G-CDS(liq) cavity-dispersion-solvent structure 
     free energy                                                5.3415 kcal/mol
(5)  G-P-CDS(liq) = G-P(liq) + G-CDS(liq) = (2) + (4)         -58.6110 kcal/mol
(6)  G-S(liq) free energy of system = (1) + (5)         -941.500908699 a.u.
(7)  DeltaE-EN(liq) elect-nuc reorganization
     energy of solute molecule (7) = (1) - (0)                  1.3479 kcal/mol
(8)  DeltaG-ENP(liq) elect-nuc-pol free energy
     of solvation (8) = (3) - (0)                             -62.6046 kcal/mol
(9)  DeltaG-S(liq) free energy of  solvation
     (9) = (6) - (0)                                          -57.2631 kcal/mol
 SCF   energy in the final basis set =     -941.5009086994
 Total energy in the final basis set =     -941.5009086994
 
 --------------------------------------------------------------
 
                    Orbital Energies (a.u.)
 --------------------------------------------------------------
 
 Alpha MOs
 -- Occupied --
-90.1605 -25.3270 -25.3254 -25.3253 -19.6460 -19.6443 -14.7490 -10.8261
 -8.4690  -6.3911  -6.3906  -6.3900  -1.4921  -1.3990  -1.3981  -1.2376
 -1.1222  -0.9969  -0.8524  -0.7534  -0.7139  -0.7136  -0.6633  -0.5982
 -0.5951  -0.5808  -0.5577  -0.5538  -0.5509  -0.5404  -0.5338  -0.4465
 -0.4173  -0.4018  -0.3807  -0.3523  -0.3338
 -- Virtual --
 -0.0324  -0.0147   0.0000   0.0015   0.0262   0.0274   0.0307   0.0840
  0.0907   0.0939   0.1172   0.1367   0.1494   0.1572   0.1681   0.1816
  0.1975   0.2175   0.2327   0.2351   0.2436   0.2495   0.2621   0.2634
  0.2708   0.2724   0.2838   0.2955   0.3110   0.3145   0.3158   0.3355
  0.3442   0.3517   0.3610   0.3707   0.3905   0.4429   0.4543   0.4600
  0.5666   0.6141   0.6360   0.6451   0.6890   0.7431   0.8490   0.9085
  0.9206   0.9698   0.9966   1.0556   1.0582   1.1339   1.1663   1.1971
  1.2722   1.2786   1.2967   1.3089   1.3121   1.3472   1.3667   1.3931
  1.4417   1.4544   1.5397   1.5793   1.6346   1.6367   1.6536   1.6708
  1.6735   1.6954   1.7134   1.7145   1.7746   1.7888   1.7987   1.8271
  1.8293   1.8438   1.8571   1.8655   1.8971   1.9074   1.9228   1.9439
  1.9668   1.9840   2.0138   2.0297   2.0849   2.0936   2.1039   2.1422
  2.1988   2.2066   2.2552   2.3215   2.3436   2.3605   2.3696   2.4523
  2.6360   2.7503   2.7903   2.8002   2.8893   2.9267   3.2187   3.2418
  3.2457   3.9824   4.0581   4.1564   4.2076   4.5272   5.5824   5.6033
  6.2774
 --------------------------------------------------------------
 
          Ground-State Mulliken Net Atomic Charges

     Atom                 Charge (a.u.)
  ----------------------------------------
      1 C                     0.898536
      2 S                     0.927186
      3 O                    -0.720684
      4 O                    -0.792575
      5 N                    -0.909493
      6 H                     0.426478
      7 F                    -0.267347
      8 F                    -0.287535
      9 F                    -0.274567
  ----------------------------------------
  Sum of atomic charges =    -1.000000

         Merz-Kollman ESP Net Atomic Charges

     Atom                 Charge (a.u.)
  ----------------------------------------
      1 C                     0.264593
      2 S                     1.126087
      3 O                    -0.689696
      4 O                    -0.646457
      5 N                    -0.992814
      6 H                     0.389060
      7 F                    -0.160445
      8 F                    -0.142626
      9 F                    -0.147701
  ----------------------------------------
  Sum of atomic charges =    -1.000000

  Related Dipole Moment =     9.5809 (X  6.5545 Y -2.4278 Z -6.5527)

 -----------------------------------------------------------------
                    Cartesian Multipole Moments
 -----------------------------------------------------------------
    Charge (ESU x 10^10)
                -4.8032
    Dipole Moment (Debye)
         X       6.5587      Y      -2.4585      Z      -6.6134
       Tot       9.6331
    Quadrupole Moments (Debye-Ang)
        XX     -65.9439     XY       4.8692     YY     -65.6102
        XZ       9.9062     YZ      -4.5550     ZZ     -68.6994
    Octopole Moments (Debye-Ang^2)
       XXX     264.9013    XXY     -43.1906    XYY     107.0500
       YYY     -87.1166    XXZ     -45.0945    XYZ       8.8895
       YYZ     -37.9008    XZZ     105.1469    YZZ     -38.1456
       ZZZ     -92.4660
    Hexadecapole Moments (Debye-Ang^3)
      XXXX   -1026.6376   XXXY     177.7056   XXYY    -291.3383
      XYYY     143.5933   YYYY    -351.0364   XXXZ     199.7170
      XXYZ     -38.9634   XYYZ      81.9993   YYYZ     -31.3326
      XXZZ    -320.4750   XYZZ      61.5617   YYZZ    -171.9123
      XZZZ     182.4588   YZZZ     -47.7557   ZZZZ    -587.4003
 -----------------------------------------------------------------
 Total job time:  5.39s(wall), 42.86s(cpu) 
 Fri May 20 20:53:45 2022

        *************************************************************
        *                                                           *
        *  Thank you very much for using Q-Chem.  Have a nice day.  *
        *                                                           *
        *************************************************************


