                  Welcome to Q-Chem
     A Quantum Leap Into The Future Of Chemistry


 Q-Chem 5.4 (devel), Q-Chem, Inc., Pleasanton, CA (2021)

 E. Epifanovsky,  A. T. B. Gilbert,  Xintian Feng,  Joonho Lee,  Yuezhi Mao,  
 N. Mardirossian,  P. Pokhilko,  A. White,  M. Wormit,  M. P. Coons,  
 A. L. Dempwolff,  Zhengting Gan,  D. Hait,  P. R. Horn,  L. D. Jacobson,  
 I. Kaliman,  J. Kussmann,  A. W. Lange,  Ka Un Lao,  D. S. Levine,  Jie Liu,  
 S. C. McKenzie,  A. F. Morrison,  K. Nanda,  F. Plasser,  D. R. Rehn,  
 M. L. Vidal,  Zhi-Qiang You,  Ying Zhu,  B. Alam,  B. Albrecht,  
 A. Aldossary,  E. Alguire,  J. H. Andersen,  D. Barton,  K. Begam,  A. Behn,  
 Y. A. Bernard,  E. J. Berquist,  H. Burton,  A. Carreras,  K. Carter-Fenk,  
 R. Chakraborty,  A. D. Chien,  K. D. Closser,  V. Cofer-Shabica,  
 S. Dasgupta,  Jia Deng,  M. de Wergifosse,  M. Diedenhofen,  Hainam Do,  
 S. Ehlert,  Po-Tung Fang,  S. Fatehi,  Qingguo Feng,  T. Friedhoff,  
 J. Gayvert,  Qinghui Ge,  G. Gidofalvi,  M. Goldey,  J. Gomes,  
 C. Gonzalez-Espinoza,  S. Gulania,  A. Gunina,  M. W. D. Hanson-Heine,  
 P. H. P. Harbach,  A. W. Hauser,  M. F. Herbst,  M. Hernandez Vera,  
 M. Hodecker,  Z. C. Holden,  S. Houck,  Xunkun Huang,  Kerwin Hui,  
 B. C. Huynh,  M. Ivanov,  Hyunjun Ji,  Hanjie Jiang,  B. Kaduk,  S. Kaehler,  
 K. Khistyaev,  Jaehoon Kim,  P. Klunzinger,  Z. Koczor-Benda,  
 Joong Hoon Koh,  D. Kosenkov,  L. Koulias,  T. Kowalczyk,  C. M. Krauter,  
 K. Kue,  A. Kunitsa,  T. Kus,  A. Landau,  K. V. Lawler,  D. Lefrancois,  
 S. Lehtola,  Rain Li,  Yi-Pei Li,  Jiashu Liang,  M. Liebenthal,  
 Hung-Hsuan Lin,  You-Sheng Lin,  Fenglai Liu,  Kuan-Yu Liu,  
 M. Loipersberger,  A. Luenser,  A. Manjanath,  P. Manohar,  E. Mansoor,  
 S. F. Manzer,  Shan-Ping Mao,  A. V. Marenich,  T. Markovich,  S. Mason,  
 S. A. Maurer,  P. F. McLaughlin,  M. F. S. J. Menger,  J.-M. Mewes,  
 S. A. Mewes,  P. Morgante,  J. W. Mullinax,  K. J. Oosterbaan,  G. Paran,  
 Alexander C. Paul,  Suranjan K. Paul,  F. Pavosevic,  Zheng Pei,  S. Prager,  
 E. I. Proynov,  E. Ramos,  B. Rana,  A. E. Rask,  A. Rettig,  R. M. Richard,  
 F. Rob,  E. Rossomme,  T. Scheele,  M. Scheurer,  M. Schneider,  
 N. Sergueev,  S. M. Sharada,  W. Skomorowski,  D. W. Small,  C. J. Stein,  
 Yu-Chuan Su,  E. J. Sundstrom,  Zhen Tao,  J. Thirman,  T. Tsuchimochi,  
 N. M. Tubman,  S. P. Veccham,  O. Vydrov,  J. Wenzel,  J. Witte,  A. Yamada,  
 Kun Yao,  S. Yeganeh,  S. R. Yost,  A. Zech,  Igor Ying Zhang,  Xing Zhang,  
 Yu Zhang,  D. Zuev,  A. Aspuru-Guzik,  A. T. Bell,  N. A. Besley,  
 K. B. Bravaya,  B. R. Brooks,  D. Casanova,  Jeng-Da Chai,  S. Coriani,  
 C. J. Cramer,  A. E. DePrince, III,  R. A. DiStasio Jr.,  A. Dreuw,  
 B. D. Dunietz,  T. R. Furlani,  W. A. Goddard III,  S. Grimme,  
 S. Hammes-Schiffer,  T. Head-Gordon,  W. J. Hehre,  Chao-Ping Hsu,  
 T.-C. Jagau,  Yousung Jung,  A. Klamt,  Jing Kong,  D. S. Lambrecht,  
 WanZhen Liang,  N. J. Mayhall,  C. W. McCurdy,  J. B. Neaton,  
 C. Ochsenfeld,  J. A. Parkhill,  R. Peverati,  V. A. Rassolov,  Yihan Shao,  
 L. V. Slipchenko,  T. Stauch,  R. P. Steele,  J. E. Subotnik,  
 A. J. W. Thom,  A. Tkatchenko,  D. G. Truhlar,  T. Van Voorhis,  
 T. A. Wesolowski,  K. B. Whaley,  H. L. Woodcock III,  P. M. Zimmerman,  
 S. Faraji,  P. M. W. Gill,  M. Head-Gordon,  J. M. Herbert,  A. I. Krylov

 Additional authors for Version 5.4.1: 
 S. Kotaru,  Shaozhi Li,  Xiangyuan Li,  F. Matz,  A. Molle,  Haisheng Ren,  
 Yingli Su,  Hung-Yi Tsai,  C. Utku,  Fang Wang

 Contributors to earlier versions of Q-Chem not listed above: 
 R. D. Adamson,  B. Austin,  R. Baer,  J. Baker,  G. J. O. Beran,  
 K. Brandhorst,  S. T. Brown,  E. F. C. Byrd,  A. K. Chakraborty,  
 G. K. L. Chan,  Chun-Min Chang,  Yunqing Chen,  C.-L. Cheng,  
 Siu Hung Chien,  D. M. Chipman,  D. L. Crittenden,  H. Dachsel,  
 R. J. Doerksen,  A. D. Dutoi,  R. G. Edgar,  J. Fosso-Tande,  
 L. Fusti-Molnar,  D. Ghosh,  A. Ghysels,  A. Golubeva-Zadorozhnaya,  
 J. Gonthier,  M. S. Gordon,  S. R. Gwaltney,  G. Hawkins,  J. E. Herr,  
 A. Heyden,  S. Hirata,  E. G. Hohenstein,  G. Kedziora,  F. J. Keil,  
 C. Kelley,  Jihan Kim,  R. A. King,  R. Z. Khaliullin,  P. P. Korambath,  
 W. Kurlancheek,  A. Laurent,  A. M. Lee,  M. S. Lee,  S. V. Levchenko,  
 Ching Yeh Lin,  D. Liotard,  E. Livshits,  R. C. Lochan,  I. Lotan,  
 L. A. Martinez-Martinez,  P. E. Maslen,  N. Nair,  D. P. O'Neill,  
 D. Neuhauser,  E. Neuscamman,  C. M. Oana,  R. Olivares-Amaya,  R. Olson,  
 T. M. Perrine,  B. Peters,  P. A. Pieniazek,  A. Prociuk,  Y. M. Rhee,  
 J. Ritchie,  M. A. Rohrdanz,  E. Rosta,  N. J. Russ,  H. F. Schaefer III,  
 M. W. Schmidt,  N. E. Schultz,  S. Sharma,  N. Shenvi,  C. D. Sherrill,  
 A. C. Simmonett,  A. Sodt,  T. Stein,  D. Stuck,  K. S. Thanthiriwatte,  
 V. Vanovschi,  L. Vogt,  Tao Wang,  A. Warshel,  M. A. Watson,  
 C. F. Williams,  Q. Wu,  X. Xu,  Jun Yang,  W. Zhang,  Yan Zhao

 Please cite Q-Chem as follows:
 Y. Shao et al., Mol. Phys. 113, 184-215 (2015)
 DOI: 10.1080/00268976.2014.952696

 Q-Chem 5.4.1 for Intel X86 EM64T Linux

 Parts of Q-Chem use Armadillo 9.800.1 (Horizon Scraper).
 http://arma.sourceforge.net/

 Q-Chem begins on Fri May 20 21:01:06 2022  

 Host: gadi-cpu-clx-1944.gadi.nci.org.au
0

     Scratch files written to /jobfs/40772282.gadi-pbs/qchem332115//
 Processing $rem in /apps/qchem/5.4.1/config/preferences:
 Processing $rem in /home/561/yj5695/.qchemrc:
 Symmetry turned off for PCM/SM12/SMD calculation
 Method-specific promolecule density matrix will be built for SM12 calculation

 Checking the input file for inconsistencies... 	...done.

--------------------------------------------------------------
User input:
--------------------------------------------------------------
$molecule
-1  1
S -1.740377  0.261739  1.267111
O -0.626298  0.881971  2.058152
O -3.010668  1.045244  1.326199
N -2.049417 -1.23067  1.629997
H -1.157432 -1.725953  1.707849
C -1.184225  0.397606 -0.431346
H -1.967255  0.004748 -1.082507
H -0.268893 -0.188297 -0.543399
H -0.990153  1.449011 -0.654835
$end

$rem
jobtype sp
exchange M062X
basis 6-31+G*
xc_grid 1
SMX_GAS_PHASE = TRUE
solvent_method sm12
$end

$smx
solvent water
charges mk
$end
--------------------------------------------------------------
 ----------------------------------------------------------------
             Standard Nuclear Orientation (Angstroms)
    I     Atom           X                Y                Z
 ----------------------------------------------------------------
    1      S      -1.7403770000     0.2617390000     1.2671110000
    2      O      -0.6262980000     0.8819710000     2.0581520000
    3      O      -3.0106680000     1.0452440000     1.3261990000
    4      N      -2.0494170000    -1.2306700000     1.6299970000
    5      H      -1.1574320000    -1.7259530000     1.7078490000
    6      C      -1.1842250000     0.3976060000    -0.4313460000
    7      H      -1.9672550000     0.0047480000    -1.0825070000
    8      H      -0.2688930000    -0.1882970000    -0.5433990000
    9      H      -0.9901530000     1.4490110000    -0.6548350000
 ----------------------------------------------------------------
 Nuclear Repulsion Energy =         265.26335574 hartrees
 There are       25 alpha and       25 beta electrons
 Requested basis set is 6-31+G(d)
 There are 34 shells and 107 basis functions

 Total QAlloc Memory Limit   2000 MB
 Mega-Array Size       188 MB
 MEM_STATIC part       192 MB

                       Distance Matrix (Angstroms)
             S (  1)   O (  2)   O (  3)   N (  4)   H (  5)   C (  6)
   O (  2)  1.500535
   O (  3)  1.493657  2.499527
   N (  4)  1.566677  2.582990  2.489193
   H (  5)  2.117781  2.684415  3.355544  1.023232
   C (  6)  1.792351  2.596823  2.616160  2.765678  3.014362
   H (  7)  2.374494  3.525823  2.823687  2.981725  3.381897  1.091551
   H (  8)  2.376077  2.835715  3.540388  2.996741  2.867404  1.092552
   H (  9)  2.380405  2.795393  2.858322  3.677389  3.961143  1.092275
             H (  7)   H (  8)
   H (  8)  1.792299
   H (  9)  1.795418  1.792599
 
 A cutoff of  1.0D-08 yielded    571 shell pairs
 There are      5905 function pairs
 Smallest overlap matrix eigenvalue = 4.78E-04

 Scale SEOQF with 1.000000e-01/1.000000e-01/1.000000e-01

 Standard Electronic Orientation quadrupole field applied
 Nucleus-field energy     =    -0.0000000022 hartrees
 ================ Generating on-the-fly Promolecule Density  ================
Attempting to make child job directory: /jobfs/40772282.gadi-pbs/qchem332115//Frg1/
Attempting to make child job directory: /jobfs/40772282.gadi-pbs/qchem332115//Frg2/
Attempting to make child job directory: /jobfs/40772282.gadi-pbs/qchem332115//Frg3/
Attempting to make child job directory: /jobfs/40772282.gadi-pbs/qchem332115//Frg4/
Attempting to make child job directory: /jobfs/40772282.gadi-pbs/qchem332115//Frg5/
Creating input file /jobfs/40772282.gadi-pbs/qchem332115/Frg1.input
using default PutDataFrgm: nothing
calling putenv with: QCSCRATCH=/jobfs/40772282.gadi-pbs/qchem332115/ 
Spawning Job For Fragment 0
Done Job For Fragment 0
calling putenv with: QCSCRATCH=/jobfs/40772282.gadi-pbs 
calling putenv with: QCTHREADS=16 
Creating input file /jobfs/40772282.gadi-pbs/qchem332115/Frg2.input
using default PutDataFrgm: nothing
calling putenv with: QCSCRATCH=/jobfs/40772282.gadi-pbs/qchem332115/ 
Spawning Job For Fragment 1
Done Job For Fragment 1
calling putenv with: QCSCRATCH=/jobfs/40772282.gadi-pbs 
calling putenv with: QCTHREADS=16 
Creating input file /jobfs/40772282.gadi-pbs/qchem332115/Frg3.input
using default PutDataFrgm: nothing
calling putenv with: QCSCRATCH=/jobfs/40772282.gadi-pbs/qchem332115/ 
Spawning Job For Fragment 2
Done Job For Fragment 2
calling putenv with: QCSCRATCH=/jobfs/40772282.gadi-pbs 
calling putenv with: QCTHREADS=16 
Creating input file /jobfs/40772282.gadi-pbs/qchem332115/Frg4.input
using default PutDataFrgm: nothing
calling putenv with: QCSCRATCH=/jobfs/40772282.gadi-pbs/qchem332115/ 
Spawning Job For Fragment 3
Done Job For Fragment 3
calling putenv with: QCSCRATCH=/jobfs/40772282.gadi-pbs 
calling putenv with: QCTHREADS=16 
Creating input file /jobfs/40772282.gadi-pbs/qchem332115/Frg5.input
using default PutDataFrgm: nothing
calling putenv with: QCSCRATCH=/jobfs/40772282.gadi-pbs/qchem332115/ 
Spawning Job For Fragment 4
Done Job For Fragment 4
calling putenv with: QCSCRATCH=/jobfs/40772282.gadi-pbs 
calling putenv with: QCTHREADS=16 
 Time for running child jobs:  CPU 2.39 s  wall 2.07 s
 ============= Method Specific Promolecule Density Constructed =============
 Guess from superposition of atomic densities
 Warning:  Energy on first SCF cycle will be non-variational
 SAD guess density has 49.000000 electrons

 -----------------------------------------------------------------------
  General SCF calculation program by
  Eric Jon Sundstrom, Paul Horn, Yuezhi Mao, Dmitri Zuev, Alec White,
  David Stuck, Shaama M.S., Shane Yost, Joonho Lee, David Small,
  Daniel Levine, Susi Lehtola, Hugh Burton, Evgeny Epifanovsky,
  Bang C. Huynh
 -----------------------------------------------------------------------
 Exchange:     0.5400 Hartree-Fock + 1.0000 M06-2X
 Correlation:  1.0000 M06-2X
 Using SG-1 standard quadrature grid
 using 16 threads for integral computing
 -------------------------------------------------------
 OpenMP Integral computing Module                
 Release: version 1.0, May 2013, Q-Chem Inc. Pittsburgh 
 -------------------------------------------------------
 A restricted SCF calculation will be
 performed using DIIS
 SCF converges when DIIS error is below 1.0e-05
 ---------------------------------------
  Cycle       Energy         DIIS error
 ---------------------------------------
    1    -644.9162346505      7.41e-02  
    2    -643.5130442409      1.38e-02  
    3    -643.4255275637      1.71e-02  
    4    -643.7399322414      1.51e-03  
    5    -643.7425877404      5.40e-04  
    6    -643.7429117579      2.07e-04  
    7    -643.7429648834      3.48e-05  
    8    -643.7429669427      6.76e-06  Convergence criterion met
 ---------------------------------------
 SCF time:   CPU 8.00s  wall 1.00s 
 SCF   energy in the final basis set =     -643.7429669427
 Total energy in the final basis set =     -643.7429669427
 Exchange:     0.5400 Hartree-Fock + 1.0000 M06-2X
 Correlation:  1.0000 M06-2X
 Using SG-1 standard quadrature grid
 
 SM12 calculation using Merz-Singh-Kollman charges
 Citation of the SM12 model:
 Marenich, A.V.; Cramer, C.J.; Truhlar, D.G.
 J. Chem. Theory Comput. 2013, 9, 609-612.
 iSolventCode=           1
 Solvent: water                                                           
 
  Building new vdw surfaces
         Merz-Kollman ESP Net Atomic Charges

     Atom                 Charge (a.u.)
  ----------------------------------------
      1 S                     1.359151
      2 O                    -0.751593
      3 O                    -0.686793
      4 N                    -1.075440
      5 H                     0.360507
      6 C                    -0.879688
      7 H                     0.223788
      8 H                     0.212618
      9 H                     0.237450
  ----------------------------------------
  Sum of atomic charges =    -1.000000

  Related Dipole Moment =    14.6560 (X 10.8983 Y -1.7694 Z -9.6382)


 Charges (in A.U.) from Merz-Kollman fitting 
 -----------------------------------------------
 Center     Atomic                  MZ       
 Number     Number                  Charge
 -----------------------------------------------
    1         16                    1.359151
    2          8                   -0.751593
    3          8                   -0.686793
    4          7                   -1.075440
    5          1                    0.360507
    6          6                   -0.879688
    7          1                    0.223788
    8          1                    0.212618
    9          1                    0.237450
 -----------------------------------------------
 A restricted SCF calculation will be
 performed using Roothaan-Hall, DIIS
 SCF converges when DIIS error is below 1.0e-05
 ---------------------------------------
  Cycle       Energy         DIIS error
 ---------------------------------------
         Merz-Kollman ESP Net Atomic Charges

     Atom                 Charge (a.u.)
  ----------------------------------------
      1 S                     1.373944
      2 O                    -0.782813
      3 O                    -0.733867
      4 N                    -1.120624
      5 H                     0.388125
      6 C                    -0.888846
      7 H                     0.251795
      8 H                     0.247337
      9 H                     0.264948
  ----------------------------------------
  Sum of atomic charges =    -1.000000

  Related Dipole Moment =    15.7166 (X 11.4524 Y -1.9382 Z -10.5876)


 Charges (in A.U.) from Merz-Kollman fitting 
 -----------------------------------------------
 Center     Atomic                  MZ       
 Number     Number                  Charge
 -----------------------------------------------
    1         16                    1.373944
    2          8                   -0.782813
    3          8                   -0.733867
    4          7                   -1.120624
    5          1                    0.388125
    6          6                   -0.888846
    7          1                    0.251795
    8          1                    0.247337
    9          1                    0.264948
 -----------------------------------------------
    1    -643.7429666937      1.11e-03  Roothaan Step
 ---------------------------------------
  Cycle       Energy         DIIS error
 ---------------------------------------
         Merz-Kollman ESP Net Atomic Charges

     Atom                 Charge (a.u.)
  ----------------------------------------
      1 S                     1.376414
      2 O                    -0.779440
      3 O                    -0.721814
      4 N                    -1.110732
      5 H                     0.379491
      6 C                    -0.997951
      7 H                     0.281842
      8 H                     0.276578
      9 H                     0.295612
  ----------------------------------------
  Sum of atomic charges =    -1.000000

  Related Dipole Moment =    15.6148 (X 11.3510 Y -1.8679 Z -10.5588)


 Charges (in A.U.) from Merz-Kollman fitting 
 -----------------------------------------------
 Center     Atomic                  MZ       
 Number     Number                  Charge
 -----------------------------------------------
    1         16                    1.376414
    2          8                   -0.779440
    3          8                   -0.721814
    4          7                   -1.110732
    5          1                    0.379491
    6          6                   -0.997951
    7          1                    0.281842
    8          1                    0.276578
    9          1                    0.295612
 -----------------------------------------------
    1    -643.7377360286      6.89e-04  
         Merz-Kollman ESP Net Atomic Charges

     Atom                 Charge (a.u.)
  ----------------------------------------
      1 S                     1.394014
      2 O                    -0.788234
      3 O                    -0.736936
      4 N                    -1.123124
      5 H                     0.384308
      6 C                    -0.963132
      7 H                     0.274670
      8 H                     0.270105
      9 H                     0.288327
  ----------------------------------------
  Sum of atomic charges =    -1.000000

  Related Dipole Moment =    15.7832 (X 11.4569 Y -1.9041 Z -10.6875)


 Charges (in A.U.) from Merz-Kollman fitting 
 -----------------------------------------------
 Center     Atomic                  MZ       
 Number     Number                  Charge
 -----------------------------------------------
    1         16                    1.394014
    2          8                   -0.788234
    3          8                   -0.736936
    4          7                   -1.123124
    5          1                    0.384308
    6          6                   -0.963132
    7          1                    0.274670
    8          1                    0.270105
    9          1                    0.288327
 -----------------------------------------------
    2    -643.7378012982      7.53e-04  
         Merz-Kollman ESP Net Atomic Charges

     Atom                 Charge (a.u.)
  ----------------------------------------
      1 S                     1.384382
      2 O                    -0.786424
      3 O                    -0.733840
      4 N                    -1.122493
      5 H                     0.384842
      6 C                    -0.971021
      7 H                     0.278400
      8 H                     0.274013
      9 H                     0.292142
  ----------------------------------------
  Sum of atomic charges =    -1.000000

  Related Dipole Moment =    15.8124 (X 11.4645 Y -1.8931 Z -10.7245)


 Charges (in A.U.) from Merz-Kollman fitting 
 -----------------------------------------------
 Center     Atomic                  MZ       
 Number     Number                  Charge
 -----------------------------------------------
    1         16                    1.384382
    2          8                   -0.786424
    3          8                   -0.733840
    4          7                   -1.122493
    5          1                    0.384842
    6          6                   -0.971021
    7          1                    0.278400
    8          1                    0.274013
    9          1                    0.292142
 -----------------------------------------------
    3    -643.7371365862      9.07e-05  
         Merz-Kollman ESP Net Atomic Charges

     Atom                 Charge (a.u.)
  ----------------------------------------
      1 S                     1.390163
      2 O                    -0.787720
      3 O                    -0.736043
      4 N                    -1.123179
      5 H                     0.384377
      6 C                    -0.976600
      7 H                     0.279864
      8 H                     0.275559
      9 H                     0.293578
  ----------------------------------------
  Sum of atomic charges =    -1.000000

  Related Dipole Moment =    15.8207 (X 11.4703 Y -1.8965 Z -10.7299)


 Charges (in A.U.) from Merz-Kollman fitting 
 -----------------------------------------------
 Center     Atomic                  MZ       
 Number     Number                  Charge
 -----------------------------------------------
    1         16                    1.390163
    2          8                   -0.787720
    3          8                   -0.736043
    4          7                   -1.123179
    5          1                    0.384377
    6          6                   -0.976600
    7          1                    0.279864
    8          1                    0.275559
    9          1                    0.293578
 -----------------------------------------------
    4    -643.7367839806      5.54e-05  
         Merz-Kollman ESP Net Atomic Charges

     Atom                 Charge (a.u.)
  ----------------------------------------
      1 S                     1.390928
      2 O                    -0.787998
      3 O                    -0.736012
      4 N                    -1.123726
      5 H                     0.384388
      6 C                    -0.976830
      7 H                     0.279948
      8 H                     0.275617
      9 H                     0.293685
  ----------------------------------------
  Sum of atomic charges =    -1.000000

  Related Dipole Moment =    15.8215 (X 11.4696 Y -1.8932 Z -10.7324)


 Charges (in A.U.) from Merz-Kollman fitting 
 -----------------------------------------------
 Center     Atomic                  MZ       
 Number     Number                  Charge
 -----------------------------------------------
    1         16                    1.390928
    2          8                   -0.787998
    3          8                   -0.736012
    4          7                   -1.123726
    5          1                    0.384388
    6          6                   -0.976830
    7          1                    0.279948
    8          1                    0.275617
    9          1                    0.293685
 -----------------------------------------------
    5    -643.7367029066      1.11e-05  
    6    -643.7366888920      4.43e-06  Convergence criterion met
 ---------------------------------------
 SCF time:   CPU 13.56s  wall 0.00s 
(0)  E-EN(g) gas-phase elect-nuc energy                 -643.742966943 a.u.
(1)  E-EN(liq) elect-nuc energy of solute               -643.736688892 a.u.
(2)  G-P(liq) polarization free energy of solvation           -80.2776 kcal/mol
(3)  G-ENP(liq) elect-nuc-pol free energy of system     -643.864619373 a.u.
(4)  G-CDS(liq) cavity-dispersion-solvent structure 
     free energy                                                3.8162 kcal/mol
(5)  G-P-CDS(liq) = G-P(liq) + G-CDS(liq) = (2) + (4)         -76.4614 kcal/mol
(6)  G-S(liq) free energy of system = (1) + (5)         -643.858537931 a.u.
(7)  DeltaE-EN(liq) elect-nuc reorganization
     energy of solute molecule (7) = (1) - (0)                  3.9395 kcal/mol
(8)  DeltaG-ENP(liq) elect-nuc-pol free energy
     of solvation (8) = (3) - (0)                             -76.3381 kcal/mol
(9)  DeltaG-S(liq) free energy of  solvation
     (9) = (6) - (0)                                          -72.5219 kcal/mol
 SCF   energy in the final basis set =     -643.8585379311
 Total energy in the final basis set =     -643.8585379311
 
 --------------------------------------------------------------
 
                    Orbital Energies (a.u.)
 --------------------------------------------------------------
 
 Alpha MOs
 -- Occupied --
-90.1399 -19.6257 -19.6256 -14.7307 -10.5770  -8.4488  -6.3708  -6.3702
 -6.3695  -1.2116  -1.0955  -0.9735  -0.8476  -0.6769  -0.5809  -0.5539
 -0.5418  -0.4964  -0.4893  -0.4253  -0.3988  -0.3777  -0.3621  -0.3383
 -0.3097
 -- Virtual --
 -0.0453  -0.0119   0.0017   0.0081   0.0249   0.0418   0.0431   0.0803
  0.0939   0.1109   0.1346   0.1563   0.1634   0.1782   0.1916   0.1978
  0.2030   0.2066   0.2313   0.2406   0.2480   0.2653   0.2702   0.2845
  0.2886   0.2969   0.3278   0.3445   0.5716   0.5779   0.6115   0.6475
  0.6545   0.6859   0.7740   0.8144   0.8378   0.9528   1.0089   1.0150
  1.0293   1.0442   1.0483   1.1394   1.1634   1.1774   1.1965   1.2905
  1.2993   1.3150   1.3266   1.3700   1.3877   1.3933   1.4116   1.5444
  1.7109   1.7403   1.7478   1.7956   1.8114   1.8675   1.8728   1.8911
  1.9248   2.0433   2.0751   2.1706   2.1863   2.2215   2.2564   2.3059
  2.3493   2.3980   2.5956   2.8286   2.8886   3.9365   4.0549   4.0708
  4.1414   4.2869
 --------------------------------------------------------------
 
          Ground-State Mulliken Net Atomic Charges

     Atom                 Charge (a.u.)
  ----------------------------------------
      1 S                     0.854466
      2 O                    -0.802249
      3 O                    -0.867604
      4 N                    -1.044964
      5 H                     0.399414
      6 C                    -0.386867
      7 H                     0.281102
      8 H                     0.285599
      9 H                     0.281103
  ----------------------------------------
  Sum of atomic charges =    -1.000000

         Merz-Kollman ESP Net Atomic Charges

     Atom                 Charge (a.u.)
  ----------------------------------------
      1 S                     1.390653
      2 O                    -0.787899
      3 O                    -0.735991
      4 N                    -1.123618
      5 H                     0.384362
      6 C                    -0.977087
      7 H                     0.280056
      8 H                     0.275734
      9 H                     0.293790
  ----------------------------------------
  Sum of atomic charges =    -1.000000

  Related Dipole Moment =    15.8224 (X 11.4702 Y -1.8933 Z -10.7330)

 -----------------------------------------------------------------
                    Cartesian Multipole Moments
 -----------------------------------------------------------------
    Charge (ESU x 10^10)
                -4.8032
    Dipole Moment (Debye)
         X      11.4972      Y      -1.8682      Z     -10.7481
       Tot      15.8492
    Quadrupole Moments (Debye-Ang)
        XX     -74.8151     XY       0.4895     YY     -48.4171
        XZ      20.2370     YZ      -4.6223     ZZ     -60.0725
    Octopole Moments (Debye-Ang^2)
       XXX     310.6760    XXY     -14.0314    XYY      91.8023
       YYY     -27.6653    XXZ    -100.3803    XYZ       0.1229
       YYZ     -59.7559    XZZ     100.5148    YZZ     -16.8640
       ZZZ    -177.2137
    Hexadecapole Moments (Debye-Ang^3)
      XXXX   -1202.4123   XXXY      71.9050   XXYY    -249.9099
      XYYY      35.2923   YYYY    -221.8085   XXXZ     400.5308
      XXYZ      -6.9327   XYYZ     115.5057   YYYZ     -29.9710
      XXZZ    -317.2161   XYZZ       9.4911   YYZZ    -148.8622
      XZZZ     302.7338   YZZZ     -33.6078   ZZZZ    -622.1512
 -----------------------------------------------------------------
 Total job time:  3.87s(wall), 28.43s(cpu) 
 Fri May 20 21:01:09 2022

        *************************************************************
        *                                                           *
        *  Thank you very much for using Q-Chem.  Have a nice day.  *
        *                                                           *
        *************************************************************


