                  Welcome to Q-Chem
     A Quantum Leap Into The Future Of Chemistry


 Q-Chem 5.4 (devel), Q-Chem, Inc., Pleasanton, CA (2021)

 E. Epifanovsky,  A. T. B. Gilbert,  Xintian Feng,  Joonho Lee,  Yuezhi Mao,  
 N. Mardirossian,  P. Pokhilko,  A. White,  M. Wormit,  M. P. Coons,  
 A. L. Dempwolff,  Zhengting Gan,  D. Hait,  P. R. Horn,  L. D. Jacobson,  
 I. Kaliman,  J. Kussmann,  A. W. Lange,  Ka Un Lao,  D. S. Levine,  Jie Liu,  
 S. C. McKenzie,  A. F. Morrison,  K. Nanda,  F. Plasser,  D. R. Rehn,  
 M. L. Vidal,  Zhi-Qiang You,  Ying Zhu,  B. Alam,  B. Albrecht,  
 A. Aldossary,  E. Alguire,  J. H. Andersen,  D. Barton,  K. Begam,  A. Behn,  
 Y. A. Bernard,  E. J. Berquist,  H. Burton,  A. Carreras,  K. Carter-Fenk,  
 R. Chakraborty,  A. D. Chien,  K. D. Closser,  V. Cofer-Shabica,  
 S. Dasgupta,  Jia Deng,  M. de Wergifosse,  M. Diedenhofen,  Hainam Do,  
 S. Ehlert,  Po-Tung Fang,  S. Fatehi,  Qingguo Feng,  T. Friedhoff,  
 J. Gayvert,  Qinghui Ge,  G. Gidofalvi,  M. Goldey,  J. Gomes,  
 C. Gonzalez-Espinoza,  S. Gulania,  A. Gunina,  M. W. D. Hanson-Heine,  
 P. H. P. Harbach,  A. W. Hauser,  M. F. Herbst,  M. Hernandez Vera,  
 M. Hodecker,  Z. C. Holden,  S. Houck,  Xunkun Huang,  Kerwin Hui,  
 B. C. Huynh,  M. Ivanov,  Hyunjun Ji,  Hanjie Jiang,  B. Kaduk,  S. Kaehler,  
 K. Khistyaev,  Jaehoon Kim,  P. Klunzinger,  Z. Koczor-Benda,  
 Joong Hoon Koh,  D. Kosenkov,  L. Koulias,  T. Kowalczyk,  C. M. Krauter,  
 K. Kue,  A. Kunitsa,  T. Kus,  A. Landau,  K. V. Lawler,  D. Lefrancois,  
 S. Lehtola,  Rain Li,  Yi-Pei Li,  Jiashu Liang,  M. Liebenthal,  
 Hung-Hsuan Lin,  You-Sheng Lin,  Fenglai Liu,  Kuan-Yu Liu,  
 M. Loipersberger,  A. Luenser,  A. Manjanath,  P. Manohar,  E. Mansoor,  
 S. F. Manzer,  Shan-Ping Mao,  A. V. Marenich,  T. Markovich,  S. Mason,  
 S. A. Maurer,  P. F. McLaughlin,  M. F. S. J. Menger,  J.-M. Mewes,  
 S. A. Mewes,  P. Morgante,  J. W. Mullinax,  K. J. Oosterbaan,  G. Paran,  
 Alexander C. Paul,  Suranjan K. Paul,  F. Pavosevic,  Zheng Pei,  S. Prager,  
 E. I. Proynov,  E. Ramos,  B. Rana,  A. E. Rask,  A. Rettig,  R. M. Richard,  
 F. Rob,  E. Rossomme,  T. Scheele,  M. Scheurer,  M. Schneider,  
 N. Sergueev,  S. M. Sharada,  W. Skomorowski,  D. W. Small,  C. J. Stein,  
 Yu-Chuan Su,  E. J. Sundstrom,  Zhen Tao,  J. Thirman,  T. Tsuchimochi,  
 N. M. Tubman,  S. P. Veccham,  O. Vydrov,  J. Wenzel,  J. Witte,  A. Yamada,  
 Kun Yao,  S. Yeganeh,  S. R. Yost,  A. Zech,  Igor Ying Zhang,  Xing Zhang,  
 Yu Zhang,  D. Zuev,  A. Aspuru-Guzik,  A. T. Bell,  N. A. Besley,  
 K. B. Bravaya,  B. R. Brooks,  D. Casanova,  Jeng-Da Chai,  S. Coriani,  
 C. J. Cramer,  A. E. DePrince, III,  R. A. DiStasio Jr.,  A. Dreuw,  
 B. D. Dunietz,  T. R. Furlani,  W. A. Goddard III,  S. Grimme,  
 S. Hammes-Schiffer,  T. Head-Gordon,  W. J. Hehre,  Chao-Ping Hsu,  
 T.-C. Jagau,  Yousung Jung,  A. Klamt,  Jing Kong,  D. S. Lambrecht,  
 WanZhen Liang,  N. J. Mayhall,  C. W. McCurdy,  J. B. Neaton,  
 C. Ochsenfeld,  J. A. Parkhill,  R. Peverati,  V. A. Rassolov,  Yihan Shao,  
 L. V. Slipchenko,  T. Stauch,  R. P. Steele,  J. E. Subotnik,  
 A. J. W. Thom,  A. Tkatchenko,  D. G. Truhlar,  T. Van Voorhis,  
 T. A. Wesolowski,  K. B. Whaley,  H. L. Woodcock III,  P. M. Zimmerman,  
 S. Faraji,  P. M. W. Gill,  M. Head-Gordon,  J. M. Herbert,  A. I. Krylov

 Additional authors for Version 5.4.1: 
 S. Kotaru,  Shaozhi Li,  Xiangyuan Li,  F. Matz,  A. Molle,  Haisheng Ren,  
 Yingli Su,  Hung-Yi Tsai,  C. Utku,  Fang Wang

 Contributors to earlier versions of Q-Chem not listed above: 
 R. D. Adamson,  B. Austin,  R. Baer,  J. Baker,  G. J. O. Beran,  
 K. Brandhorst,  S. T. Brown,  E. F. C. Byrd,  A. K. Chakraborty,  
 G. K. L. Chan,  Chun-Min Chang,  Yunqing Chen,  C.-L. Cheng,  
 Siu Hung Chien,  D. M. Chipman,  D. L. Crittenden,  H. Dachsel,  
 R. J. Doerksen,  A. D. Dutoi,  R. G. Edgar,  J. Fosso-Tande,  
 L. Fusti-Molnar,  D. Ghosh,  A. Ghysels,  A. Golubeva-Zadorozhnaya,  
 J. Gonthier,  M. S. Gordon,  S. R. Gwaltney,  G. Hawkins,  J. E. Herr,  
 A. Heyden,  S. Hirata,  E. G. Hohenstein,  G. Kedziora,  F. J. Keil,  
 C. Kelley,  Jihan Kim,  R. A. King,  R. Z. Khaliullin,  P. P. Korambath,  
 W. Kurlancheek,  A. Laurent,  A. M. Lee,  M. S. Lee,  S. V. Levchenko,  
 Ching Yeh Lin,  D. Liotard,  E. Livshits,  R. C. Lochan,  I. Lotan,  
 L. A. Martinez-Martinez,  P. E. Maslen,  N. Nair,  D. P. O'Neill,  
 D. Neuhauser,  E. Neuscamman,  C. M. Oana,  R. Olivares-Amaya,  R. Olson,  
 T. M. Perrine,  B. Peters,  P. A. Pieniazek,  A. Prociuk,  Y. M. Rhee,  
 J. Ritchie,  M. A. Rohrdanz,  E. Rosta,  N. J. Russ,  H. F. Schaefer III,  
 M. W. Schmidt,  N. E. Schultz,  S. Sharma,  N. Shenvi,  C. D. Sherrill,  
 A. C. Simmonett,  A. Sodt,  T. Stein,  D. Stuck,  K. S. Thanthiriwatte,  
 V. Vanovschi,  L. Vogt,  Tao Wang,  A. Warshel,  M. A. Watson,  
 C. F. Williams,  Q. Wu,  X. Xu,  Jun Yang,  W. Zhang,  Yan Zhao

 Please cite Q-Chem as follows:
 Y. Shao et al., Mol. Phys. 113, 184-215 (2015)
 DOI: 10.1080/00268976.2014.952696

 Q-Chem 5.4.1 for Intel X86 EM64T Linux

 Parts of Q-Chem use Armadillo 9.800.1 (Horizon Scraper).
 http://arma.sourceforge.net/

 Q-Chem begins on Wed Jun  1 14:31:36 2022  

 Host: gadi-cpu-clx-1187.gadi.nci.org.au
0

     Scratch files written to /jobfs/42047014.gadi-pbs/qchem3661182//
 Processing $rem in /apps/qchem/5.4.1/config/preferences:
 Processing $rem in /home/561/yj5695/.qchemrc:
 Symmetry turned off for PCM/SM12/SMD calculation
 Method-specific promolecule density matrix will be built for SM12 calculation

 Checking the input file for inconsistencies... 	...done.

--------------------------------------------------------------
User input:
--------------------------------------------------------------
$molecule
-1  1
C -1.4358182181  1.2801104751 -1.8980794902
S -1.7195869242  1.442587687 -0.1452345428
O -0.803127314  2.5317629663  0.2794958156
O -3.1645904907  1.8023954898 -0.1161701599
N -1.3250641971  0.126330496  0.5835428549
H -2.0264101557 -0.5850551184  0.3611006715
C -2.2729523982  1.3090509897 -2.9681827545
C -1.4416474146  1.0502569973 -4.1158173413
C -0.1781287426  0.885098998 -3.6089761756
O -0.1285838677  1.0161178223 -2.2655648747
C -1.4398463374  0.9236228047 -5.5475073352
C -0.1931914318  0.672890183 -6.0385571848
S  1.0467311606  0.5860853162 -4.7798301814
H -3.3372234641  1.4949033304 -2.931966343
H -2.310127727  1.0124464497 -6.1887965352
C  0.1945768433  0.4584146154 -7.4691698667
N  1.1757995379  1.4297686012 -7.9584162532
C  0.6195026532  2.785388582 -7.9243020783
C  1.6040419929  3.77743356 -8.5144178658
O  1.9398756913  3.4353819459 -9.855981376
C  2.4882191708  2.1218546052 -9.9100262072
C  1.515157868  1.1036202945 -9.346725254
H -0.7344202889  0.5004343557 -8.0654507047
H  0.6228921495 -0.5417237419 -7.6024263125
H  0.4052386895  3.0688383946 -6.8890371191
H -0.3285101491  2.8267811139 -8.4926197691
H  2.5217115704  3.8087121494 -7.909065242
H  1.1645954246  4.7767899261 -8.5449148936
H  3.4324583731  2.1005833605 -9.3466534162
H  2.6964283609  1.9096266398 -10.9609690224
H  1.9674546347  0.1072936867 -9.3830503944
H  0.6048280006  1.0890770239 -9.9739766482
$end

$rem
jobtype sp
exchange M062X
basis 6-31G*
SMX_GAS_PHASE = TRUE
solvent_method sm12
$end

$smx
solvent water
charges mk
$end
--------------------------------------------------------------
 ----------------------------------------------------------------
             Standard Nuclear Orientation (Angstroms)
    I     Atom           X                Y                Z
 ----------------------------------------------------------------
    1      C      -1.4358182181     1.2801104751    -1.8980794902
    2      S      -1.7195869242     1.4425876870    -0.1452345428
    3      O      -0.8031273140     2.5317629663     0.2794958156
    4      O      -3.1645904907     1.8023954898    -0.1161701599
    5      N      -1.3250641971     0.1263304960     0.5835428549
    6      H      -2.0264101557    -0.5850551184     0.3611006715
    7      C      -2.2729523982     1.3090509897    -2.9681827545
    8      C      -1.4416474146     1.0502569973    -4.1158173413
    9      C      -0.1781287426     0.8850989980    -3.6089761756
   10      O      -0.1285838677     1.0161178223    -2.2655648747
   11      C      -1.4398463374     0.9236228047    -5.5475073352
   12      C      -0.1931914318     0.6728901830    -6.0385571848
   13      S       1.0467311606     0.5860853162    -4.7798301814
   14      H      -3.3372234641     1.4949033304    -2.9319663430
   15      H      -2.3101277270     1.0124464497    -6.1887965352
   16      C       0.1945768433     0.4584146154    -7.4691698667
   17      N       1.1757995379     1.4297686012    -7.9584162532
   18      C       0.6195026532     2.7853885820    -7.9243020783
   19      C       1.6040419929     3.7774335600    -8.5144178658
   20      O       1.9398756913     3.4353819459    -9.8559813760
   21      C       2.4882191708     2.1218546052    -9.9100262072
   22      C       1.5151578680     1.1036202945    -9.3467252540
   23      H      -0.7344202889     0.5004343557    -8.0654507047
   24      H       0.6228921495    -0.5417237419    -7.6024263125
   25      H       0.4052386895     3.0688383946    -6.8890371191
   26      H      -0.3285101491     2.8267811139    -8.4926197691
   27      H       2.5217115704     3.8087121494    -7.9090652420
   28      H       1.1645954246     4.7767899261    -8.5449148936
   29      H       3.4324583731     2.1005833605    -9.3466534162
   30      H       2.6964283609     1.9096266398   -10.9609690224
   31      H       1.9674546347     0.1072936867    -9.3830503944
   32      H       0.6048280006     1.0890770239    -9.9739766482
 ----------------------------------------------------------------
 Nuclear Repulsion Energy =        1701.22680144 hartrees
 There are       79 alpha and       79 beta electrons
 Requested basis set is 6-31G(d)
 There are 104 shells and 319 basis functions

 Total QAlloc Memory Limit   2000 MB
 Mega-Array Size       188 MB
 MEM_STATIC part       192 MB
 A cutoff of  1.0D-08 yielded   2787 shell pairs
 There are     27444 function pairs
 Smallest overlap matrix eigenvalue = 7.48E-04

 Scale SEOQF with 1.000000e-01/1.000000e-01/1.000000e-02

 Standard Electronic Orientation quadrupole field applied
 Nucleus-field energy     =    -0.0000000072 hartrees
 ================ Generating on-the-fly Promolecule Density  ================
Attempting to make child job directory: /jobfs/42047014.gadi-pbs/qchem3661182//Frg1/
Attempting to make child job directory: /jobfs/42047014.gadi-pbs/qchem3661182//Frg2/
Attempting to make child job directory: /jobfs/42047014.gadi-pbs/qchem3661182//Frg3/
Attempting to make child job directory: /jobfs/42047014.gadi-pbs/qchem3661182//Frg4/
Attempting to make child job directory: /jobfs/42047014.gadi-pbs/qchem3661182//Frg5/
Creating input file /jobfs/42047014.gadi-pbs/qchem3661182/Frg1.input
using default PutDataFrgm: nothing
calling putenv with: QCSCRATCH=/jobfs/42047014.gadi-pbs/qchem3661182/ 
Spawning Job For Fragment 0
Done Job For Fragment 0
calling putenv with: QCSCRATCH=/jobfs/42047014.gadi-pbs 
calling putenv with: QCTHREADS=16 
Creating input file /jobfs/42047014.gadi-pbs/qchem3661182/Frg2.input
using default PutDataFrgm: nothing
calling putenv with: QCSCRATCH=/jobfs/42047014.gadi-pbs/qchem3661182/ 
Spawning Job For Fragment 1
Done Job For Fragment 1
calling putenv with: QCSCRATCH=/jobfs/42047014.gadi-pbs 
calling putenv with: QCTHREADS=16 
Creating input file /jobfs/42047014.gadi-pbs/qchem3661182/Frg3.input
using default PutDataFrgm: nothing
calling putenv with: QCSCRATCH=/jobfs/42047014.gadi-pbs/qchem3661182/ 
Spawning Job For Fragment 2
Done Job For Fragment 2
calling putenv with: QCSCRATCH=/jobfs/42047014.gadi-pbs 
calling putenv with: QCTHREADS=16 
Creating input file /jobfs/42047014.gadi-pbs/qchem3661182/Frg4.input
using default PutDataFrgm: nothing
calling putenv with: QCSCRATCH=/jobfs/42047014.gadi-pbs/qchem3661182/ 
Spawning Job For Fragment 3
Done Job For Fragment 3
calling putenv with: QCSCRATCH=/jobfs/42047014.gadi-pbs 
calling putenv with: QCTHREADS=16 
Creating input file /jobfs/42047014.gadi-pbs/qchem3661182/Frg5.input
using default PutDataFrgm: nothing
calling putenv with: QCSCRATCH=/jobfs/42047014.gadi-pbs/qchem3661182/ 
Spawning Job For Fragment 4
Done Job For Fragment 4
calling putenv with: QCSCRATCH=/jobfs/42047014.gadi-pbs 
calling putenv with: QCTHREADS=16 
 Time for running child jobs:  CPU 1.46 s  wall 2.07 s
 ============= Method Specific Promolecule Density Constructed =============
 Guess from superposition of atomic densities
 Warning:  Energy on first SCF cycle will be non-variational
 SAD guess density has 157.000000 electrons

 -----------------------------------------------------------------------
  General SCF calculation program by
  Eric Jon Sundstrom, Paul Horn, Yuezhi Mao, Dmitri Zuev, Alec White,
  David Stuck, Shaama M.S., Shane Yost, Joonho Lee, David Small,
  Daniel Levine, Susi Lehtola, Hugh Burton, Evgeny Epifanovsky,
  Bang C. Huynh
 -----------------------------------------------------------------------
 Exchange:     0.5400 Hartree-Fock + 1.0000 M06-2X
 Correlation:  1.0000 M06-2X
 Using SG-3 standard quadrature grid
 using 16 threads for integral computing
 -------------------------------------------------------
 OpenMP Integral computing Module                
 Release: version 1.0, May 2013, Q-Chem Inc. Pittsburgh 
 -------------------------------------------------------
 A restricted SCF calculation will be
 performed using DIIS
 SCF converges when DIIS error is below 1.0e-05
 ---------------------------------------
  Cycle       Energy         DIIS error
 ---------------------------------------
    1   -1639.2787562612      4.72e-02  
    2   -1632.9330183570      5.42e-03  
    3   -1632.8030587653      6.78e-03  
    4   -1633.2506278053      8.69e-04  
    5   -1633.2578644036      4.28e-04  
    6   -1633.2599318786      1.12e-04  
    7   -1633.2600603159      3.84e-05  
    8   -1633.2600763420      1.12e-05  
    9   -1633.2600791068      4.12e-06  Convergence criterion met
 ---------------------------------------
 SCF time:   CPU 101.18s  wall 7.00s 
 SCF   energy in the final basis set =    -1633.2600791068
 Total energy in the final basis set =    -1633.2600791068
 Exchange:     0.5400 Hartree-Fock + 1.0000 M06-2X
 Correlation:  1.0000 M06-2X
 Using SG-3 standard quadrature grid
 
 SM12 calculation using Merz-Singh-Kollman charges
 Citation of the SM12 model:
 Marenich, A.V.; Cramer, C.J.; Truhlar, D.G.
 J. Chem. Theory Comput. 2013, 9, 609-612.
 iSolventCode=           1
 Solvent: water                                                           
 
  Building new vdw surfaces
         Merz-Kollman ESP Net Atomic Charges

     Atom                 Charge (a.u.)
  ----------------------------------------
      1 C                    -0.101993
      2 S                     0.944296
      3 O                    -0.554001
      4 O                    -0.611436
      5 N                    -0.901134
      6 H                     0.338833
      7 C                    -0.228008
      8 C                     0.010299
      9 C                     0.254080
     10 O                    -0.119730
     11 C                    -0.222673
     12 C                    -0.157293
     13 S                    -0.066603
     14 H                     0.180804
     15 H                     0.176384
     16 C                    -0.143669
     17 N                    -0.157303
     18 C                    -0.169520
     19 C                    -0.015709
     20 O                    -0.353328
     21 C                     0.032715
     22 C                    -0.110260
     23 H                     0.076436
     24 H                     0.154712
     25 H                     0.133222
     26 H                     0.118962
     27 H                     0.085129
     28 H                     0.104045
     29 H                     0.068275
     30 H                     0.082557
     31 H                     0.075304
     32 H                     0.076608
  ----------------------------------------
  Sum of atomic charges =    -1.000000

  Related Dipole Moment =    10.2987 (X  5.1979 Y -8.8675 Z  0.6415)


 Charges (in A.U.) from Merz-Kollman fitting 
 -----------------------------------------------
 Center     Atomic                  MZ       
 Number     Number                  Charge
 -----------------------------------------------
    1          6                   -0.101993
    2         16                    0.944296
    3          8                   -0.554001
    4          8                   -0.611436
    5          7                   -0.901134
    6          1                    0.338833
    7          6                   -0.228008
    8          6                    0.010299
    9          6                    0.254080
   10          8                   -0.119730
   11          6                   -0.222673
   12          6                   -0.157293
   13         16                   -0.066603
   14          1                    0.180804
   15          1                    0.176384
   16          6                   -0.143669
   17          7                   -0.157303
   18          6                   -0.169520
   19          6                   -0.015709
   20          8                   -0.353328
   21          6                    0.032715
   22          6                   -0.110260
   23          1                    0.076436
   24          1                    0.154712
   25          1                    0.133222
   26          1                    0.118962
   27          1                    0.085129
   28          1                    0.104045
   29          1                    0.068275
   30          1                    0.082557
   31          1                    0.075304
   32          1                    0.076608
 -----------------------------------------------
 A restricted SCF calculation will be
 performed using Roothaan-Hall, DIIS
 SCF converges when DIIS error is below 1.0e-05
 ---------------------------------------
  Cycle       Energy         DIIS error
 ---------------------------------------
         Merz-Kollman ESP Net Atomic Charges

     Atom                 Charge (a.u.)
  ----------------------------------------
      1 C                    -0.178137
      2 S                     0.970215
      3 O                    -0.605080
      4 O                    -0.631818
      5 N                    -0.949334
      6 H                     0.368526
      7 C                    -0.191746
      8 C                     0.059273
      9 C                     0.214789
     10 O                    -0.137109
     11 C                    -0.275730
     12 C                    -0.076101
     13 S                    -0.050917
     14 H                     0.198960
     15 H                     0.209039
     16 C                    -0.181803
     17 N                    -0.153513
     18 C                    -0.166070
     19 C                    -0.030259
     20 O                    -0.371624
     21 C                     0.017576
     22 C                    -0.117252
     23 H                     0.093701
     24 H                     0.173288
     25 H                     0.125949
     26 H                     0.126529
     27 H                     0.090480
     28 H                     0.116745
     29 H                     0.075706
     30 H                     0.099580
     31 H                     0.090087
     32 H                     0.086050
  ----------------------------------------
  Sum of atomic charges =    -1.000000

  Related Dipole Moment =    11.2557 (X  5.1562 Y -9.5858 Z -2.8664)


 Charges (in A.U.) from Merz-Kollman fitting 
 -----------------------------------------------
 Center     Atomic                  MZ       
 Number     Number                  Charge
 -----------------------------------------------
    1          6                   -0.178137
    2         16                    0.970215
    3          8                   -0.605080
    4          8                   -0.631818
    5          7                   -0.949334
    6          1                    0.368526
    7          6                   -0.191746
    8          6                    0.059273
    9          6                    0.214789
   10          8                   -0.137109
   11          6                   -0.275730
   12          6                   -0.076101
   13         16                   -0.050917
   14          1                    0.198960
   15          1                    0.209039
   16          6                   -0.181803
   17          7                   -0.153513
   18          6                   -0.166070
   19          6                   -0.030259
   20          8                   -0.371624
   21          6                    0.017576
   22          6                   -0.117252
   23          1                    0.093701
   24          1                    0.173288
   25          1                    0.125949
   26          1                    0.126529
   27          1                    0.090480
   28          1                    0.116745
   29          1                    0.075706
   30          1                    0.099580
   31          1                    0.090087
   32          1                    0.086050
 -----------------------------------------------
    1   -1633.2600791959      4.75e-04  Roothaan Step
 ---------------------------------------
  Cycle       Energy         DIIS error
 ---------------------------------------
         Merz-Kollman ESP Net Atomic Charges

     Atom                 Charge (a.u.)
  ----------------------------------------
      1 C                    -0.102256
      2 S                     0.967570
      3 O                    -0.599526
      4 O                    -0.650655
      5 N                    -0.952800
      6 H                     0.359021
      7 C                    -0.259733
      8 C                     0.021987
      9 C                     0.241728
     10 O                    -0.117137
     11 C                    -0.251764
     12 C                    -0.134951
     13 S                    -0.039472
     14 H                     0.210198
     15 H                     0.216758
     16 C                    -0.220877
     17 N                    -0.140094
     18 C                    -0.176471
     19 C                    -0.031324
     20 O                    -0.357752
     21 C                     0.012681
     22 C                    -0.134229
     23 H                     0.110752
     24 H                     0.189784
     25 H                     0.130020
     26 H                     0.130569
     27 H                     0.090515
     28 H                     0.117783
     29 H                     0.077275
     30 H                     0.102750
     31 H                     0.096630
     32 H                     0.093019
  ----------------------------------------
  Sum of atomic charges =    -1.000000

  Related Dipole Moment =    11.4029 (X  5.7732 Y -9.3867 Z -2.9304)


 Charges (in A.U.) from Merz-Kollman fitting 
 -----------------------------------------------
 Center     Atomic                  MZ       
 Number     Number                  Charge
 -----------------------------------------------
    1          6                   -0.102256
    2         16                    0.967570
    3          8                   -0.599526
    4          8                   -0.650655
    5          7                   -0.952800
    6          1                    0.359021
    7          6                   -0.259733
    8          6                    0.021987
    9          6                    0.241728
   10          8                   -0.117137
   11          6                   -0.251764
   12          6                   -0.134951
   13         16                   -0.039472
   14          1                    0.210198
   15          1                    0.216758
   16          6                   -0.220877
   17          7                   -0.140094
   18          6                   -0.176471
   19          6                   -0.031324
   20          8                   -0.357752
   21          6                    0.012681
   22          6                   -0.134229
   23          1                    0.110752
   24          1                    0.189784
   25          1                    0.130020
   26          1                    0.130569
   27          1                    0.090515
   28          1                    0.117783
   29          1                    0.077275
   30          1                    0.102750
   31          1                    0.096630
   32          1                    0.093019
 -----------------------------------------------
    1   -1633.2503947114      3.25e-04  
         Merz-Kollman ESP Net Atomic Charges

     Atom                 Charge (a.u.)
  ----------------------------------------
      1 C                    -0.153555
      2 S                     0.982186
      3 O                    -0.611174
      4 O                    -0.645073
      5 N                    -0.958590
      6 H                     0.363426
      7 C                    -0.215425
      8 C                     0.048705
      9 C                     0.224499
     10 O                    -0.131908
     11 C                    -0.276980
     12 C                    -0.087736
     13 S                    -0.046929
     14 H                     0.205190
     15 H                     0.218785
     16 C                    -0.216056
     17 N                    -0.141065
     18 C                    -0.173805
     19 C                    -0.030219
     20 O                    -0.366459
     21 C                     0.015416
     22 C                    -0.134548
     23 H                     0.106468
     24 H                     0.186288
     25 H                     0.128558
     26 H                     0.129862
     27 H                     0.090788
     28 H                     0.118593
     29 H                     0.077243
     30 H                     0.103492
     31 H                     0.097257
     32 H                     0.092764
  ----------------------------------------
  Sum of atomic charges =    -1.000000

  Related Dipole Moment =    11.4873 (X  5.4560 Y -9.5095 Z -3.4294)


 Charges (in A.U.) from Merz-Kollman fitting 
 -----------------------------------------------
 Center     Atomic                  MZ       
 Number     Number                  Charge
 -----------------------------------------------
    1          6                   -0.153555
    2         16                    0.982186
    3          8                   -0.611174
    4          8                   -0.645073
    5          7                   -0.958590
    6          1                    0.363426
    7          6                   -0.215425
    8          6                    0.048705
    9          6                    0.224499
   10          8                   -0.131908
   11          6                   -0.276980
   12          6                   -0.087736
   13         16                   -0.046929
   14          1                    0.205190
   15          1                    0.218785
   16          6                   -0.216056
   17          7                   -0.141065
   18          6                   -0.173805
   19          6                   -0.030219
   20          8                   -0.366459
   21          6                    0.015416
   22          6                   -0.134548
   23          1                    0.106468
   24          1                    0.186288
   25          1                    0.128558
   26          1                    0.129862
   27          1                    0.090788
   28          1                    0.118593
   29          1                    0.077243
   30          1                    0.103492
   31          1                    0.097257
   32          1                    0.092764
 -----------------------------------------------
    2   -1633.2510274701      3.39e-04  
         Merz-Kollman ESP Net Atomic Charges

     Atom                 Charge (a.u.)
  ----------------------------------------
      1 C                    -0.151336
      2 S                     0.983387
      3 O                    -0.611818
      4 O                    -0.648898
      5 N                    -0.960842
      6 H                     0.363951
      7 C                    -0.220052
      8 C                     0.043264
      9 C                     0.228209
     10 O                    -0.127813
     11 C                    -0.273896
     12 C                    -0.092979
     13 S                    -0.044271
     14 H                     0.206868
     15 H                     0.219777
     16 C                    -0.219252
     17 N                    -0.141298
     18 C                    -0.174194
     19 C                    -0.030667
     20 O                    -0.366294
     21 C                     0.014220
     22 C                    -0.133937
     23 H                     0.108169
     24 H                     0.188107
     25 H                     0.128277
     26 H                     0.130408
     27 H                     0.090976
     28 H                     0.119126
     29 H                     0.077615
     30 H                     0.104275
     31 H                     0.097736
     32 H                     0.093181
  ----------------------------------------
  Sum of atomic charges =    -1.000000

  Related Dipole Moment =    11.5774 (X  5.5502 Y -9.5275 Z -3.5296)


 Charges (in A.U.) from Merz-Kollman fitting 
 -----------------------------------------------
 Center     Atomic                  MZ       
 Number     Number                  Charge
 -----------------------------------------------
    1          6                   -0.151336
    2         16                    0.983387
    3          8                   -0.611818
    4          8                   -0.648898
    5          7                   -0.960842
    6          1                    0.363951
    7          6                   -0.220052
    8          6                    0.043264
    9          6                    0.228209
   10          8                   -0.127813
   11          6                   -0.273896
   12          6                   -0.092979
   13         16                   -0.044271
   14          1                    0.206868
   15          1                    0.219777
   16          6                   -0.219252
   17          7                   -0.141298
   18          6                   -0.174194
   19          6                   -0.030667
   20          8                   -0.366294
   21          6                    0.014220
   22          6                   -0.133937
   23          1                    0.108169
   24          1                    0.188107
   25          1                    0.128277
   26          1                    0.130408
   27          1                    0.090976
   28          1                    0.119126
   29          1                    0.077615
   30          1                    0.104275
   31          1                    0.097736
   32          1                    0.093181
 -----------------------------------------------
    3   -1633.2495886825      6.16e-05  
         Merz-Kollman ESP Net Atomic Charges

     Atom                 Charge (a.u.)
  ----------------------------------------
      1 C                    -0.150593
      2 S                     0.982245
      3 O                    -0.612094
      4 O                    -0.648366
      5 N                    -0.961041
      6 H                     0.363281
      7 C                    -0.220137
      8 C                     0.044784
      9 C                     0.227119
     10 O                    -0.128877
     11 C                    -0.275825
     12 C                    -0.091325
     13 S                    -0.044264
     14 H                     0.207186
     15 H                     0.220816
     16 C                    -0.221865
     17 N                    -0.139920
     18 C                    -0.174659
     19 C                    -0.030905
     20 O                    -0.365657
     21 C                     0.013918
     22 C                    -0.135959
     23 H                     0.109061
     24 H                     0.189044
     25 H                     0.128358
     26 H                     0.130651
     27 H                     0.090985
     28 H                     0.119314
     29 H                     0.077747
     30 H                     0.104667
     31 H                     0.098432
     32 H                     0.093882
  ----------------------------------------
  Sum of atomic charges =    -1.000000

  Related Dipole Moment =    11.5931 (X  5.5487 Y -9.5189 Z -3.6058)


 Charges (in A.U.) from Merz-Kollman fitting 
 -----------------------------------------------
 Center     Atomic                  MZ       
 Number     Number                  Charge
 -----------------------------------------------
    1          6                   -0.150593
    2         16                    0.982245
    3          8                   -0.612094
    4          8                   -0.648366
    5          7                   -0.961041
    6          1                    0.363281
    7          6                   -0.220137
    8          6                    0.044784
    9          6                    0.227119
   10          8                   -0.128877
   11          6                   -0.275825
   12          6                   -0.091325
   13         16                   -0.044264
   14          1                    0.207186
   15          1                    0.220816
   16          6                   -0.221865
   17          7                   -0.139920
   18          6                   -0.174659
   19          6                   -0.030905
   20          8                   -0.365657
   21          6                    0.013918
   22          6                   -0.135959
   23          1                    0.109061
   24          1                    0.189044
   25          1                    0.128358
   26          1                    0.130651
   27          1                    0.090985
   28          1                    0.119314
   29          1                    0.077747
   30          1                    0.104667
   31          1                    0.098432
   32          1                    0.093882
 -----------------------------------------------
    4   -1633.2491359052      2.91e-05  
    5   -1633.2488413748      6.59e-06  Convergence criterion met
 ---------------------------------------
 SCF time:   CPU 96.96s  wall 6.00s 
(0)  E-EN(g) gas-phase elect-nuc energy                -1633.260079107 a.u.
(1)  E-EN(liq) elect-nuc energy of solute              -1633.248841375 a.u.
(2)  G-P(liq) polarization free energy of solvation           -78.1323 kcal/mol
(3)  G-ENP(liq) elect-nuc-pol free energy of system    -1633.373353116 a.u.
(4)  G-CDS(liq) cavity-dispersion-solvent structure 
     free energy                                               -1.8199 kcal/mol
(5)  G-P-CDS(liq) = G-P(liq) + G-CDS(liq) = (2) + (4)         -79.9522 kcal/mol
(6)  G-S(liq) free energy of system = (1) + (5)        -1633.376253240 a.u.
(7)  DeltaE-EN(liq) elect-nuc reorganization
     energy of solute molecule (7) = (1) - (0)                  7.0518 kcal/mol
(8)  DeltaG-ENP(liq) elect-nuc-pol free energy
     of solvation (8) = (3) - (0)                             -71.0805 kcal/mol
(9)  DeltaG-S(liq) free energy of  solvation
     (9) = (6) - (0)                                          -72.9004 kcal/mol
 SCF   energy in the final basis set =    -1633.3762532395
 Total energy in the final basis set =    -1633.3762532395
 
 --------------------------------------------------------------
 
                    Orbital Energies (a.u.)
 --------------------------------------------------------------
 
 Alpha MOs
 -- Occupied --
-90.1267 -89.9601 -19.7280 -19.6424 -19.6088 -19.6047 -14.7594 -14.7101
-10.6334 -10.6209 -10.5909 -10.5906 -10.5903 -10.5866 -10.5694 -10.5681
-10.5671 -10.5660 -10.5626  -8.4387  -8.3088  -6.3612  -6.3609  -6.3600
 -6.2292  -6.2272  -6.2243  -1.2544  -1.1981  -1.1590  -1.0825  -1.0411
 -0.9883  -0.9585  -0.9100  -0.8708  -0.8632  -0.8218  -0.8097  -0.7482
 -0.7405  -0.7009  -0.6800  -0.6532  -0.6417  -0.6213  -0.5887  -0.5812
 -0.5645  -0.5597  -0.5504  -0.5416  -0.5414  -0.5348  -0.5155  -0.5146
 -0.5063  -0.4866  -0.4842  -0.4644  -0.4623  -0.4427  -0.4329  -0.4262
 -0.4192  -0.4123  -0.4091  -0.4021  -0.3848  -0.3746  -0.3732  -0.3586
 -0.3512  -0.3284  -0.3253  -0.3036  -0.2941  -0.2890  -0.2657
 -- Virtual --
  0.0256   0.0320   0.0543   0.1024   0.1344   0.1392   0.1450   0.1485
  0.1583   0.1632   0.1716   0.1736   0.1781   0.1844   0.1960   0.1996
  0.2094   0.2134   0.2170   0.2213   0.2282   0.2354   0.2425   0.2527
  0.2552   0.2685   0.2793   0.2840   0.2961   0.2984   0.3088   0.3114
  0.3267   0.3338   0.3447   0.3811   0.3920   0.4041   0.4136   0.4328
  0.4480   0.4551   0.4906   0.5097   0.5415   0.5615   0.5650   0.5766
  0.5822   0.5980   0.6061   0.6156   0.6192   0.6326   0.6377   0.6399
  0.6458   0.6497   0.6628   0.6693   0.6770   0.6920   0.7109   0.7179
  0.7294   0.7433   0.7532   0.7790   0.7997   0.8086   0.8219   0.8336
  0.8408   0.8497   0.8546   0.8579   0.8685   0.8747   0.8752   0.8917
  0.8972   0.9024   0.9057   0.9169   0.9191   0.9223   0.9338   0.9447
  0.9548   0.9632   0.9738   0.9798   0.9853   0.9876   0.9952   0.9990
  1.0120   1.0223   1.0262   1.0439   1.0537   1.0657   1.0695   1.0764
  1.0866   1.1018   1.1051   1.1221   1.1282   1.1379   1.1510   1.1753
  1.1838   1.2121   1.2269   1.2447   1.2618   1.2787   1.3042   1.3115
  1.3228   1.3332   1.3419   1.3693   1.3850   1.4030   1.4209   1.4249
  1.4390   1.4436   1.4756   1.4918   1.5037   1.5193   1.5569   1.5680
  1.6050   1.6111   1.6247   1.6486   1.6599   1.6810   1.6912   1.7207
  1.7322   1.7632   1.7872   1.8048   1.8211   1.8260   1.8363   1.8642
  1.8793   1.8879   1.8927   1.9031   1.9153   1.9166   1.9401   1.9438
  1.9648   1.9810   1.9964   2.0211   2.0299   2.0381   2.0455   2.0566
  2.0636   2.0660   2.0984   2.1142   2.1251   2.1463   2.1616   2.1771
  2.1902   2.1947   2.2085   2.2151   2.2268   2.2477   2.2671   2.2772
  2.2841   2.3198   2.3266   2.3561   2.3640   2.3677   2.3912   2.4021
  2.4243   2.4347   2.4662   2.4883   2.5018   2.5118   2.5272   2.5556
  2.5648   2.5725   2.5940   2.6316   2.6915   2.7162   2.7267   2.7439
  2.7723   2.7943   2.8089   2.8288   2.8554   2.8755   2.8865   2.9343
  2.9479   2.9687   3.0829   3.1394   3.2293   3.7494   3.8417   3.9544
  3.9689   3.9967   4.0565   4.0902   4.1232   4.1594   4.2486   4.2522
  4.3407   4.3587   4.3791   4.4651   4.5220   4.5625   4.5830   4.6527
 --------------------------------------------------------------
 
          Ground-State Mulliken Net Atomic Charges

     Atom                 Charge (a.u.)
  ----------------------------------------
      1 C                    -0.035219
      2 S                     1.012477
      3 O                    -0.702476
      4 O                    -0.673598
      5 N                    -0.854916
      6 H                     0.322664
      7 C                    -0.206012
      8 C                     0.015176
      9 C                     0.073320
     10 O                    -0.523467
     11 C                    -0.100192
     12 C                    -0.205435
     13 S                     0.291753
     14 H                     0.245293
     15 H                     0.247272
     16 C                    -0.146602
     17 N                    -0.474269
     18 C                    -0.158183
     19 C                    -0.065949
     20 O                    -0.559687
     21 C                    -0.064236
     22 C                    -0.142359
     23 H                     0.167261
     24 H                     0.202463
     25 H                     0.177644
     26 H                     0.141132
     27 H                     0.152628
     28 H                     0.189176
     29 H                     0.153676
     30 H                     0.191147
     31 H                     0.186805
     32 H                     0.142715
  ----------------------------------------
  Sum of atomic charges =    -1.000000

         Merz-Kollman ESP Net Atomic Charges

     Atom                 Charge (a.u.)
  ----------------------------------------
      1 C                    -0.151184
      2 S                     0.984353
      3 O                    -0.612713
      4 O                    -0.649182
      5 N                    -0.961478
      6 H                     0.363077
      7 C                    -0.219775
      8 C                     0.044490
      9 C                     0.227628
     10 O                    -0.128671
     11 C                    -0.275963
     12 C                    -0.091090
     13 S                    -0.044575
     14 H                     0.207140
     15 H                     0.220882
     16 C                    -0.222354
     17 N                    -0.139934
     18 C                    -0.174644
     19 C                    -0.030709
     20 O                    -0.365921
     21 C                     0.014098
     22 C                    -0.136061
     23 H                     0.109206
     24 H                     0.189194
     25 H                     0.128399
     26 H                     0.130643
     27 H                     0.090977
     28 H                     0.119308
     29 H                     0.077745
     30 H                     0.104681
     31 H                     0.098506
     32 H                     0.093927
  ----------------------------------------
  Sum of atomic charges =    -1.000000

  Related Dipole Moment =    11.5966 (X  5.5524 Y -9.5189 Z -3.6113)

 -----------------------------------------------------------------
                    Cartesian Multipole Moments
 -----------------------------------------------------------------
    Charge (ESU x 10^10)
                -4.8032
    Dipole Moment (Debye)
         X       5.5214      Y      -9.5065      Z      -3.5048
       Tot      11.5388
    Quadrupole Moments (Debye-Ang)
        XX    -140.8036     XY       9.5779     YY    -149.4934
        XZ      11.9930     YZ      11.1353     ZZ    -121.6540
    Octopole Moments (Debye-Ang^2)
       XXX     120.8620    XXY    -225.1576    XYY      38.4792
       YYY    -610.5277    XXZ     557.1657    XYZ      51.6226
       YYZ     636.4248    XZZ     -35.2189    YZZ    -358.4542
       ZZZ    1759.7989
    Hexadecapole Moments (Debye-Ang^3)
      XXXX   -2110.5462   XXXY      27.9769   XXYY    -844.8245
      XYYY     -51.2064   YYYY   -2607.9233   XXXZ    1400.7435
      XXYZ    1029.0773   XYYZ     620.0591   YYYZ    3147.4038
      XXZZ   -4472.3658   XYZZ    -503.2609   YYZZ   -5458.8708
      XZZZ    1765.6845   YZZZ    5080.7419   ZZZZ  -26624.2689
 -----------------------------------------------------------------
 Total job time:  15.55s(wall), 205.63s(cpu) 
 Wed Jun  1 14:31:52 2022

        *************************************************************
        *                                                           *
        *  Thank you very much for using Q-Chem.  Have a nice day.  *
        *                                                           *
        *************************************************************


