                  Welcome to Q-Chem
     A Quantum Leap Into The Future Of Chemistry


 Q-Chem 5.4 (devel), Q-Chem, Inc., Pleasanton, CA (2021)

 E. Epifanovsky,  A. T. B. Gilbert,  Xintian Feng,  Joonho Lee,  Yuezhi Mao,  
 N. Mardirossian,  P. Pokhilko,  A. White,  M. Wormit,  M. P. Coons,  
 A. L. Dempwolff,  Zhengting Gan,  D. Hait,  P. R. Horn,  L. D. Jacobson,  
 I. Kaliman,  J. Kussmann,  A. W. Lange,  Ka Un Lao,  D. S. Levine,  Jie Liu,  
 S. C. McKenzie,  A. F. Morrison,  K. Nanda,  F. Plasser,  D. R. Rehn,  
 M. L. Vidal,  Zhi-Qiang You,  Ying Zhu,  B. Alam,  B. Albrecht,  
 A. Aldossary,  E. Alguire,  J. H. Andersen,  D. Barton,  K. Begam,  A. Behn,  
 Y. A. Bernard,  E. J. Berquist,  H. Burton,  A. Carreras,  K. Carter-Fenk,  
 R. Chakraborty,  A. D. Chien,  K. D. Closser,  V. Cofer-Shabica,  
 S. Dasgupta,  Jia Deng,  M. de Wergifosse,  M. Diedenhofen,  Hainam Do,  
 S. Ehlert,  Po-Tung Fang,  S. Fatehi,  Qingguo Feng,  T. Friedhoff,  
 J. Gayvert,  Qinghui Ge,  G. Gidofalvi,  M. Goldey,  J. Gomes,  
 C. Gonzalez-Espinoza,  S. Gulania,  A. Gunina,  M. W. D. Hanson-Heine,  
 P. H. P. Harbach,  A. W. Hauser,  M. F. Herbst,  M. Hernandez Vera,  
 M. Hodecker,  Z. C. Holden,  S. Houck,  Xunkun Huang,  Kerwin Hui,  
 B. C. Huynh,  M. Ivanov,  Hyunjun Ji,  Hanjie Jiang,  B. Kaduk,  S. Kaehler,  
 K. Khistyaev,  Jaehoon Kim,  P. Klunzinger,  Z. Koczor-Benda,  
 Joong Hoon Koh,  D. Kosenkov,  L. Koulias,  T. Kowalczyk,  C. M. Krauter,  
 K. Kue,  A. Kunitsa,  T. Kus,  A. Landau,  K. V. Lawler,  D. Lefrancois,  
 S. Lehtola,  Rain Li,  Yi-Pei Li,  Jiashu Liang,  M. Liebenthal,  
 Hung-Hsuan Lin,  You-Sheng Lin,  Fenglai Liu,  Kuan-Yu Liu,  
 M. Loipersberger,  A. Luenser,  A. Manjanath,  P. Manohar,  E. Mansoor,  
 S. F. Manzer,  Shan-Ping Mao,  A. V. Marenich,  T. Markovich,  S. Mason,  
 S. A. Maurer,  P. F. McLaughlin,  M. F. S. J. Menger,  J.-M. Mewes,  
 S. A. Mewes,  P. Morgante,  J. W. Mullinax,  K. J. Oosterbaan,  G. Paran,  
 Alexander C. Paul,  Suranjan K. Paul,  F. Pavosevic,  Zheng Pei,  S. Prager,  
 E. I. Proynov,  E. Ramos,  B. Rana,  A. E. Rask,  A. Rettig,  R. M. Richard,  
 F. Rob,  E. Rossomme,  T. Scheele,  M. Scheurer,  M. Schneider,  
 N. Sergueev,  S. M. Sharada,  W. Skomorowski,  D. W. Small,  C. J. Stein,  
 Yu-Chuan Su,  E. J. Sundstrom,  Zhen Tao,  J. Thirman,  T. Tsuchimochi,  
 N. M. Tubman,  S. P. Veccham,  O. Vydrov,  J. Wenzel,  J. Witte,  A. Yamada,  
 Kun Yao,  S. Yeganeh,  S. R. Yost,  A. Zech,  Igor Ying Zhang,  Xing Zhang,  
 Yu Zhang,  D. Zuev,  A. Aspuru-Guzik,  A. T. Bell,  N. A. Besley,  
 K. B. Bravaya,  B. R. Brooks,  D. Casanova,  Jeng-Da Chai,  S. Coriani,  
 C. J. Cramer,  A. E. DePrince, III,  R. A. DiStasio Jr.,  A. Dreuw,  
 B. D. Dunietz,  T. R. Furlani,  W. A. Goddard III,  S. Grimme,  
 S. Hammes-Schiffer,  T. Head-Gordon,  W. J. Hehre,  Chao-Ping Hsu,  
 T.-C. Jagau,  Yousung Jung,  A. Klamt,  Jing Kong,  D. S. Lambrecht,  
 WanZhen Liang,  N. J. Mayhall,  C. W. McCurdy,  J. B. Neaton,  
 C. Ochsenfeld,  J. A. Parkhill,  R. Peverati,  V. A. Rassolov,  Yihan Shao,  
 L. V. Slipchenko,  T. Stauch,  R. P. Steele,  J. E. Subotnik,  
 A. J. W. Thom,  A. Tkatchenko,  D. G. Truhlar,  T. Van Voorhis,  
 T. A. Wesolowski,  K. B. Whaley,  H. L. Woodcock III,  P. M. Zimmerman,  
 S. Faraji,  P. M. W. Gill,  M. Head-Gordon,  J. M. Herbert,  A. I. Krylov

 Additional authors for Version 5.4.1: 
 S. Kotaru,  Shaozhi Li,  Xiangyuan Li,  F. Matz,  A. Molle,  Haisheng Ren,  
 Yingli Su,  Hung-Yi Tsai,  C. Utku,  Fang Wang

 Contributors to earlier versions of Q-Chem not listed above: 
 R. D. Adamson,  B. Austin,  R. Baer,  J. Baker,  G. J. O. Beran,  
 K. Brandhorst,  S. T. Brown,  E. F. C. Byrd,  A. K. Chakraborty,  
 G. K. L. Chan,  Chun-Min Chang,  Yunqing Chen,  C.-L. Cheng,  
 Siu Hung Chien,  D. M. Chipman,  D. L. Crittenden,  H. Dachsel,  
 R. J. Doerksen,  A. D. Dutoi,  R. G. Edgar,  J. Fosso-Tande,  
 L. Fusti-Molnar,  D. Ghosh,  A. Ghysels,  A. Golubeva-Zadorozhnaya,  
 J. Gonthier,  M. S. Gordon,  S. R. Gwaltney,  G. Hawkins,  J. E. Herr,  
 A. Heyden,  S. Hirata,  E. G. Hohenstein,  G. Kedziora,  F. J. Keil,  
 C. Kelley,  Jihan Kim,  R. A. King,  R. Z. Khaliullin,  P. P. Korambath,  
 W. Kurlancheek,  A. Laurent,  A. M. Lee,  M. S. Lee,  S. V. Levchenko,  
 Ching Yeh Lin,  D. Liotard,  E. Livshits,  R. C. Lochan,  I. Lotan,  
 L. A. Martinez-Martinez,  P. E. Maslen,  N. Nair,  D. P. O'Neill,  
 D. Neuhauser,  E. Neuscamman,  C. M. Oana,  R. Olivares-Amaya,  R. Olson,  
 T. M. Perrine,  B. Peters,  P. A. Pieniazek,  A. Prociuk,  Y. M. Rhee,  
 J. Ritchie,  M. A. Rohrdanz,  E. Rosta,  N. J. Russ,  H. F. Schaefer III,  
 M. W. Schmidt,  N. E. Schultz,  S. Sharma,  N. Shenvi,  C. D. Sherrill,  
 A. C. Simmonett,  A. Sodt,  T. Stein,  D. Stuck,  K. S. Thanthiriwatte,  
 V. Vanovschi,  L. Vogt,  Tao Wang,  A. Warshel,  M. A. Watson,  
 C. F. Williams,  Q. Wu,  X. Xu,  Jun Yang,  W. Zhang,  Yan Zhao

 Please cite Q-Chem as follows:
 Y. Shao et al., Mol. Phys. 113, 184-215 (2015)
 DOI: 10.1080/00268976.2014.952696

 Q-Chem 5.4.1 for Intel X86 EM64T Linux

 Parts of Q-Chem use Armadillo 9.800.1 (Horizon Scraper).
 http://arma.sourceforge.net/

 Q-Chem begins on Sat May 28 16:45:03 2022  

 Host: gadi-cpu-clx-1119.gadi.nci.org.au
0

     Scratch files written to /jobfs/41564536.gadi-pbs/qchem1455150//
 Processing $rem in /apps/qchem/5.4.1/config/preferences:
 Processing $rem in /home/561/yj5695/.qchemrc:
 Symmetry turned off for PCM/SM12/SMD calculation
 Method-specific promolecule density matrix will be built for SM12 calculation

 Checking the input file for inconsistencies... 	...done.

--------------------------------------------------------------
User input:
--------------------------------------------------------------
$molecule
-1  1
C -1.6074863958  0.6071409413 -1.3823863733
S -2.1319026578  0.487027875  0.3330148849
O -2.8690729134  1.7525410206  0.5820719043
O -3.0098145503 -0.7191791076  0.3191901116
N -0.872244533  0.4162547597  1.2352259044
H -0.4670953494 -0.5200551974  1.1597356892
S -2.7330925279  0.4674022711 -2.6928292436
C -1.4981147179  0.7225854394 -3.8532193601
C -0.2923119495  0.9074587771 -3.2386970986
C -0.3364964792  0.8409829233 -1.8129975813
S  1.2008295541  1.1375220972 -4.1453544871
C  2.0422164536 -0.4209719998 -4.0339403124
O  2.0072721714  2.1463429783 -3.4427472494
O  0.8366125728  1.3737080704 -5.5505456212
C  3.0189382054 -0.5958271351 -3.0587056901
C  3.6455356799 -1.8372502742 -2.9647861719
C  3.2975829285 -2.8832586968 -3.8232639144
C  2.3021432609 -2.6768476958 -4.7876777392
C  1.6659090245 -1.4467300323 -4.9015494332
H -1.7155737881  0.717044019 -4.9148854657
H  0.5176681105  0.9595263479 -1.154464355
H  3.2899779289  0.21753075 -2.3927269139
H  4.4171443785 -1.9926536176 -2.2150588156
H  0.8910557281 -1.2876980437 -5.6463015087
C  3.9836596012 -4.2237428472 -3.7179831947
N  4.9441586166 -4.4583362023 -4.8016793324
H  2.0201602224 -3.4896420527 -5.4518097595
H  3.2312696389 -5.0181010483 -3.7667235798
H  4.4851893007 -4.2986078316 -2.7372804555
C  6.065902026 -3.5185743773 -4.7083300413
C  5.4742360729 -5.8197192928 -4.67487426
C  6.5203101026 -6.0878200502 -5.7399247123
C  7.10584694 -3.8245693097 -5.77018146
O  7.5942058207 -5.156719785 -5.6448313895
H  6.5355831863 -3.5775528436 -3.7086512131
H  5.7042547648 -2.4957804825 -4.8523486859
H  4.6538577658 -6.5367789847 -4.7807815278
H  5.9296286104 -5.9657174904 -3.6780092371
H  6.0721239919 -6.0219721195 -6.7420646208
H  6.952192607 -7.0823275752 -5.6082997884
H  7.9667592471 -3.161460006 -5.6608831259
H  6.6762653498 -3.690088171 -6.7736347757
$end

$rem
jobtype sp
exchange M062X
basis 6-31G*
SMX_GAS_PHASE = TRUE
solvent_method sm12
$end

$smx
solvent water
charges mk
$end
--------------------------------------------------------------
 ----------------------------------------------------------------
             Standard Nuclear Orientation (Angstroms)
    I     Atom           X                Y                Z
 ----------------------------------------------------------------
    1      C      -1.6074863958     0.6071409413    -1.3823863733
    2      S      -2.1319026578     0.4870278750     0.3330148849
    3      O      -2.8690729134     1.7525410206     0.5820719043
    4      O      -3.0098145503    -0.7191791076     0.3191901116
    5      N      -0.8722445330     0.4162547597     1.2352259044
    6      H      -0.4670953494    -0.5200551974     1.1597356892
    7      S      -2.7330925279     0.4674022711    -2.6928292436
    8      C      -1.4981147179     0.7225854394    -3.8532193601
    9      C      -0.2923119495     0.9074587771    -3.2386970986
   10      C      -0.3364964792     0.8409829233    -1.8129975813
   11      S       1.2008295541     1.1375220972    -4.1453544871
   12      C       2.0422164536    -0.4209719998    -4.0339403124
   13      O       2.0072721714     2.1463429783    -3.4427472494
   14      O       0.8366125728     1.3737080704    -5.5505456212
   15      C       3.0189382054    -0.5958271351    -3.0587056901
   16      C       3.6455356799    -1.8372502742    -2.9647861719
   17      C       3.2975829285    -2.8832586968    -3.8232639144
   18      C       2.3021432609    -2.6768476958    -4.7876777392
   19      C       1.6659090245    -1.4467300323    -4.9015494332
   20      H      -1.7155737881     0.7170440190    -4.9148854657
   21      H       0.5176681105     0.9595263479    -1.1544643550
   22      H       3.2899779289     0.2175307500    -2.3927269139
   23      H       4.4171443785    -1.9926536176    -2.2150588156
   24      H       0.8910557281    -1.2876980437    -5.6463015087
   25      C       3.9836596012    -4.2237428472    -3.7179831947
   26      N       4.9441586166    -4.4583362023    -4.8016793324
   27      H       2.0201602224    -3.4896420527    -5.4518097595
   28      H       3.2312696389    -5.0181010483    -3.7667235798
   29      H       4.4851893007    -4.2986078316    -2.7372804555
   30      C       6.0659020260    -3.5185743773    -4.7083300413
   31      C       5.4742360729    -5.8197192928    -4.6748742600
   32      C       6.5203101026    -6.0878200502    -5.7399247123
   33      C       7.1058469400    -3.8245693097    -5.7701814600
   34      O       7.5942058207    -5.1567197850    -5.6448313895
   35      H       6.5355831863    -3.5775528436    -3.7086512131
   36      H       5.7042547648    -2.4957804825    -4.8523486859
   37      H       4.6538577658    -6.5367789847    -4.7807815278
   38      H       5.9296286104    -5.9657174904    -3.6780092371
   39      H       6.0721239919    -6.0219721195    -6.7420646208
   40      H       6.9521926070    -7.0823275752    -5.6082997884
   41      H       7.9667592471    -3.1614600060    -5.6608831259
   42      H       6.6762653498    -3.6900881710    -6.7736347757
 ----------------------------------------------------------------
 Nuclear Repulsion Energy =        2668.09933759 hartrees
 There are      105 alpha and      105 beta electrons
 Requested basis set is 6-31G(d)
 There are 137 shells and 421 basis functions

 Total QAlloc Memory Limit   2000 MB
 Mega-Array Size       188 MB
 MEM_STATIC part       192 MB
 A cutoff of  1.0D-08 yielded   4049 shell pairs
 There are     39856 function pairs
 Smallest overlap matrix eigenvalue = 4.44E-04

 Scale SEOQF with 1.000000e-02/1.000000e-02/1.000000e-02

 Standard Electronic Orientation quadrupole field applied
 Nucleus-field energy     =    -0.0000000112 hartrees
 ================ Generating on-the-fly Promolecule Density  ================
Attempting to make child job directory: /jobfs/41564536.gadi-pbs/qchem1455150//Frg1/
Attempting to make child job directory: /jobfs/41564536.gadi-pbs/qchem1455150//Frg2/
Attempting to make child job directory: /jobfs/41564536.gadi-pbs/qchem1455150//Frg3/
Attempting to make child job directory: /jobfs/41564536.gadi-pbs/qchem1455150//Frg4/
Attempting to make child job directory: /jobfs/41564536.gadi-pbs/qchem1455150//Frg5/
Creating input file /jobfs/41564536.gadi-pbs/qchem1455150/Frg1.input
using default PutDataFrgm: nothing
calling putenv with: QCSCRATCH=/jobfs/41564536.gadi-pbs/qchem1455150/ 
Spawning Job For Fragment 0
Done Job For Fragment 0
calling putenv with: QCSCRATCH=/jobfs/41564536.gadi-pbs 
calling putenv with: QCTHREADS=16 
Creating input file /jobfs/41564536.gadi-pbs/qchem1455150/Frg2.input
using default PutDataFrgm: nothing
calling putenv with: QCSCRATCH=/jobfs/41564536.gadi-pbs/qchem1455150/ 
Spawning Job For Fragment 1
Done Job For Fragment 1
calling putenv with: QCSCRATCH=/jobfs/41564536.gadi-pbs 
calling putenv with: QCTHREADS=16 
Creating input file /jobfs/41564536.gadi-pbs/qchem1455150/Frg3.input
using default PutDataFrgm: nothing
calling putenv with: QCSCRATCH=/jobfs/41564536.gadi-pbs/qchem1455150/ 
Spawning Job For Fragment 2
Done Job For Fragment 2
calling putenv with: QCSCRATCH=/jobfs/41564536.gadi-pbs 
calling putenv with: QCTHREADS=16 
Creating input file /jobfs/41564536.gadi-pbs/qchem1455150/Frg4.input
using default PutDataFrgm: nothing
calling putenv with: QCSCRATCH=/jobfs/41564536.gadi-pbs/qchem1455150/ 
Spawning Job For Fragment 3
Done Job For Fragment 3
calling putenv with: QCSCRATCH=/jobfs/41564536.gadi-pbs 
calling putenv with: QCTHREADS=16 
Creating input file /jobfs/41564536.gadi-pbs/qchem1455150/Frg5.input
using default PutDataFrgm: nothing
calling putenv with: QCSCRATCH=/jobfs/41564536.gadi-pbs/qchem1455150/ 
Spawning Job For Fragment 4
Done Job For Fragment 4
calling putenv with: QCSCRATCH=/jobfs/41564536.gadi-pbs 
calling putenv with: QCTHREADS=16 
 Time for running child jobs:  CPU 1.80 s  wall 2.01 s
 ============= Method Specific Promolecule Density Constructed =============
 Guess from superposition of atomic densities
 Warning:  Energy on first SCF cycle will be non-variational
 SAD guess density has 209.000000 electrons

 -----------------------------------------------------------------------
  General SCF calculation program by
  Eric Jon Sundstrom, Paul Horn, Yuezhi Mao, Dmitri Zuev, Alec White,
  David Stuck, Shaama M.S., Shane Yost, Joonho Lee, David Small,
  Daniel Levine, Susi Lehtola, Hugh Burton, Evgeny Epifanovsky,
  Bang C. Huynh
 -----------------------------------------------------------------------
 Exchange:     0.5400 Hartree-Fock + 1.0000 M06-2X
 Correlation:  1.0000 M06-2X
 Using SG-3 standard quadrature grid
 using 16 threads for integral computing
 -------------------------------------------------------
 OpenMP Integral computing Module                
 Release: version 1.0, May 2013, Q-Chem Inc. Pittsburgh 
 -------------------------------------------------------
 A restricted SCF calculation will be
 performed using DIIS
 SCF converges when DIIS error is below 1.0e-05
 ---------------------------------------
  Cycle       Energy         DIIS error
 ---------------------------------------
    1   -2269.3154423724      4.12e-02  
    2   -2260.8392549675      5.14e-03  
    3   -2260.5606125291      6.80e-03  
    4   -2261.3232270150      8.28e-04  
    5   -2261.3344500475      4.07e-04  
    6   -2261.3379085558      9.65e-05  
    7   -2261.3381031793      3.51e-05  
    8   -2261.3381302293      1.04e-05  
    9   -2261.3381345533      3.76e-06  Convergence criterion met
 ---------------------------------------
 SCF time:   CPU 180.39s  wall 12.00s 
 SCF   energy in the final basis set =    -2261.3381345533
 Total energy in the final basis set =    -2261.3381345533
 Exchange:     0.5400 Hartree-Fock + 1.0000 M06-2X
 Correlation:  1.0000 M06-2X
 Using SG-3 standard quadrature grid
 
 SM12 calculation using Merz-Singh-Kollman charges
 Citation of the SM12 model:
 Marenich, A.V.; Cramer, C.J.; Truhlar, D.G.
 J. Chem. Theory Comput. 2013, 9, 609-612.
 iSolventCode=           1
 Solvent: water                                                           
 
  Building new vdw surfaces
         Merz-Kollman ESP Net Atomic Charges

     Atom                 Charge (a.u.)
  ----------------------------------------
      1 C                    -0.144294
      2 S                     0.926854
      3 O                    -0.541675
      4 O                    -0.597639
      5 N                    -0.885604
      6 H                     0.333107
      7 S                     0.083712
      8 C                    -0.243350
      9 C                    -0.036554
     10 C                    -0.089040
     11 S                     0.848169
     12 C                    -0.081428
     13 O                    -0.508498
     14 O                    -0.520677
     15 C                    -0.086741
     16 C                    -0.294075
     17 C                     0.421160
     18 C                    -0.296954
     19 C                    -0.088179
     20 H                     0.202439
     21 H                     0.137985
     22 H                     0.169164
     23 H                     0.153723
     24 H                     0.146517
     25 C                    -0.609365
     26 N                    -0.195016
     27 H                     0.175717
     28 H                     0.222194
     29 H                     0.177958
     30 C                    -0.115026
     31 C                    -0.068081
     32 C                    -0.060783
     33 C                    -0.060131
     34 O                    -0.311256
     35 H                     0.108251
     36 H                     0.130136
     37 H                     0.096838
     38 H                     0.096217
     39 H                     0.093494
     40 H                     0.103781
     41 H                     0.109702
     42 H                     0.097249
  ----------------------------------------
  Sum of atomic charges =    -1.000000

  Related Dipole Moment =    11.0044 (X  7.7706 Y -7.6712 Z  1.3670)


 Charges (in A.U.) from Merz-Kollman fitting 
 -----------------------------------------------
 Center     Atomic                  MZ       
 Number     Number                  Charge
 -----------------------------------------------
    1          6                   -0.144294
    2         16                    0.926854
    3          8                   -0.541675
    4          8                   -0.597639
    5          7                   -0.885604
    6          1                    0.333107
    7         16                    0.083712
    8          6                   -0.243350
    9          6                   -0.036554
   10          6                   -0.089040
   11         16                    0.848169
   12          6                   -0.081428
   13          8                   -0.508498
   14          8                   -0.520677
   15          6                   -0.086741
   16          6                   -0.294075
   17          6                    0.421160
   18          6                   -0.296954
   19          6                   -0.088179
   20          1                    0.202439
   21          1                    0.137985
   22          1                    0.169164
   23          1                    0.153723
   24          1                    0.146517
   25          6                   -0.609365
   26          7                   -0.195016
   27          1                    0.175717
   28          1                    0.222194
   29          1                    0.177958
   30          6                   -0.115026
   31          6                   -0.068081
   32          6                   -0.060783
   33          6                   -0.060131
   34          8                   -0.311256
   35          1                    0.108251
   36          1                    0.130136
   37          1                    0.096838
   38          1                    0.096217
   39          1                    0.093494
   40          1                    0.103781
   41          1                    0.109702
   42          1                    0.097249
 -----------------------------------------------
 A restricted SCF calculation will be
 performed using Roothaan-Hall, DIIS
 SCF converges when DIIS error is below 1.0e-05
 ---------------------------------------
  Cycle       Energy         DIIS error
 ---------------------------------------
         Merz-Kollman ESP Net Atomic Charges

     Atom                 Charge (a.u.)
  ----------------------------------------
      1 C                    -0.218790
      2 S                     0.954084
      3 O                    -0.595354
      4 O                    -0.627495
      5 N                    -0.923922
      6 H                     0.361516
      7 S                     0.094501
      8 C                    -0.198148
      9 C                    -0.029556
     10 C                    -0.065477
     11 S                     0.889034
     12 C                    -0.122656
     13 O                    -0.549622
     14 O                    -0.543877
     15 C                    -0.097389
     16 C                    -0.298279
     17 C                     0.480779
     18 C                    -0.307658
     19 C                    -0.096407
     20 H                     0.231689
     21 H                     0.149578
     22 H                     0.175375
     23 H                     0.171421
     24 H                     0.156422
     25 C                    -0.645645
     26 N                    -0.198014
     27 H                     0.194308
     28 H                     0.236173
     29 H                     0.189231
     30 C                    -0.113248
     31 C                    -0.067678
     32 C                    -0.078329
     33 C                    -0.073164
     34 O                    -0.331855
     35 H                     0.112982
     36 H                     0.130411
     37 H                     0.109318
     38 H                     0.101540
     39 H                     0.101761
     40 H                     0.118059
     41 H                     0.120808
     42 H                     0.103572
  ----------------------------------------
  Sum of atomic charges =    -1.000000

  Related Dipole Moment =    13.1178 (X  9.1215 Y -9.4121 Z -0.5360)


 Charges (in A.U.) from Merz-Kollman fitting 
 -----------------------------------------------
 Center     Atomic                  MZ       
 Number     Number                  Charge
 -----------------------------------------------
    1          6                   -0.218790
    2         16                    0.954084
    3          8                   -0.595354
    4          8                   -0.627495
    5          7                   -0.923922
    6          1                    0.361516
    7         16                    0.094501
    8          6                   -0.198148
    9          6                   -0.029556
   10          6                   -0.065477
   11         16                    0.889034
   12          6                   -0.122656
   13          8                   -0.549622
   14          8                   -0.543877
   15          6                   -0.097389
   16          6                   -0.298279
   17          6                    0.480779
   18          6                   -0.307658
   19          6                   -0.096407
   20          1                    0.231689
   21          1                    0.149578
   22          1                    0.175375
   23          1                    0.171421
   24          1                    0.156422
   25          6                   -0.645645
   26          7                   -0.198014
   27          1                    0.194308
   28          1                    0.236173
   29          1                    0.189231
   30          6                   -0.113248
   31          6                   -0.067678
   32          6                   -0.078329
   33          6                   -0.073164
   34          8                   -0.331855
   35          1                    0.112982
   36          1                    0.130411
   37          1                    0.109318
   38          1                    0.101540
   39          1                    0.101761
   40          1                    0.118059
   41          1                    0.120808
   42          1                    0.103572
 -----------------------------------------------
    1   -2261.3381321044      3.56e-04  Roothaan Step
 ---------------------------------------
  Cycle       Energy         DIIS error
 ---------------------------------------
         Merz-Kollman ESP Net Atomic Charges

     Atom                 Charge (a.u.)
  ----------------------------------------
      1 C                    -0.124973
      2 S                     0.957863
      3 O                    -0.586284
      4 O                    -0.640175
      5 N                    -0.934246
      6 H                     0.353952
      7 S                     0.101153
      8 C                    -0.300976
      9 C                    -0.008114
     10 C                    -0.126719
     11 S                     0.872262
     12 C                    -0.106898
     13 O                    -0.529498
     14 O                    -0.538187
     15 C                    -0.080517
     16 C                    -0.315026
     17 C                     0.462248
     18 C                    -0.318915
     19 C                    -0.090231
     20 H                     0.256094
     21 H                     0.160720
     22 H                     0.172071
     23 H                     0.180358
     24 H                     0.155083
     25 C                    -0.661644
     26 N                    -0.180949
     27 H                     0.202185
     28 H                     0.242686
     29 H                     0.195411
     30 C                    -0.124748
     31 C                    -0.086027
     32 C                    -0.082535
     33 C                    -0.074523
     34 O                    -0.316262
     35 H                     0.115501
     36 H                     0.133827
     37 H                     0.114140
     38 H                     0.107377
     39 H                     0.101525
     40 H                     0.119872
     41 H                     0.120805
     42 H                     0.102313
  ----------------------------------------
  Sum of atomic charges =    -1.000000

  Related Dipole Moment =    13.2662 (X  9.4571 Y -9.2968 Z -0.3525)


 Charges (in A.U.) from Merz-Kollman fitting 
 -----------------------------------------------
 Center     Atomic                  MZ       
 Number     Number                  Charge
 -----------------------------------------------
    1          6                   -0.124973
    2         16                    0.957863
    3          8                   -0.586284
    4          8                   -0.640175
    5          7                   -0.934246
    6          1                    0.353952
    7         16                    0.101153
    8          6                   -0.300976
    9          6                   -0.008114
   10          6                   -0.126719
   11         16                    0.872262
   12          6                   -0.106898
   13          8                   -0.529498
   14          8                   -0.538187
   15          6                   -0.080517
   16          6                   -0.315026
   17          6                    0.462248
   18          6                   -0.318915
   19          6                   -0.090231
   20          1                    0.256094
   21          1                    0.160720
   22          1                    0.172071
   23          1                    0.180358
   24          1                    0.155083
   25          6                   -0.661644
   26          7                   -0.180949
   27          1                    0.202185
   28          1                    0.242686
   29          1                    0.195411
   30          6                   -0.124748
   31          6                   -0.086027
   32          6                   -0.082535
   33          6                   -0.074523
   34          8                   -0.316262
   35          1                    0.115501
   36          1                    0.133827
   37          1                    0.114140
   38          1                    0.107377
   39          1                    0.101525
   40          1                    0.119872
   41          1                    0.120805
   42          1                    0.102313
 -----------------------------------------------
    1   -2261.3285326044      2.57e-04  
         Merz-Kollman ESP Net Atomic Charges

     Atom                 Charge (a.u.)
  ----------------------------------------
      1 C                    -0.192377
      2 S                     0.968867
      3 O                    -0.598402
      4 O                    -0.638774
      5 N                    -0.932854
      6 H                     0.357016
      7 S                     0.095159
      8 C                    -0.240066
      9 C                    -0.017643
     10 C                    -0.085817
     11 S                     0.891718
     12 C                    -0.118327
     13 O                    -0.547028
     14 O                    -0.545104
     15 C                    -0.089915
     16 C                    -0.310454
     17 C                     0.481540
     18 C                    -0.317233
     19 C                    -0.093402
     20 H                     0.246104
     21 H                     0.154233
     22 H                     0.174370
     23 H                     0.179199
     24 H                     0.156257
     25 C                    -0.661975
     26 N                    -0.188227
     27 H                     0.201480
     28 H                     0.242159
     29 H                     0.194657
     30 C                    -0.119686
     31 C                    -0.081024
     32 C                    -0.080076
     33 C                    -0.072011
     34 O                    -0.325915
     35 H                     0.114682
     36 H                     0.132147
     37 H                     0.114195
     38 H                     0.106218
     39 H                     0.101941
     40 H                     0.120355
     41 H                     0.121298
     42 H                     0.102715
  ----------------------------------------
  Sum of atomic charges =    -1.000000

  Related Dipole Moment =    13.5420 (X  9.5512 Y -9.5721 Z -0.7334)


 Charges (in A.U.) from Merz-Kollman fitting 
 -----------------------------------------------
 Center     Atomic                  MZ       
 Number     Number                  Charge
 -----------------------------------------------
    1          6                   -0.192377
    2         16                    0.968867
    3          8                   -0.598402
    4          8                   -0.638774
    5          7                   -0.932854
    6          1                    0.357016
    7         16                    0.095159
    8          6                   -0.240066
    9          6                   -0.017643
   10          6                   -0.085817
   11         16                    0.891718
   12          6                   -0.118327
   13          8                   -0.547028
   14          8                   -0.545104
   15          6                   -0.089915
   16          6                   -0.310454
   17          6                    0.481540
   18          6                   -0.317233
   19          6                   -0.093402
   20          1                    0.246104
   21          1                    0.154233
   22          1                    0.174370
   23          1                    0.179199
   24          1                    0.156257
   25          6                   -0.661975
   26          7                   -0.188227
   27          1                    0.201480
   28          1                    0.242159
   29          1                    0.194657
   30          6                   -0.119686
   31          6                   -0.081024
   32          6                   -0.080076
   33          6                   -0.072011
   34          8                   -0.325915
   35          1                    0.114682
   36          1                    0.132147
   37          1                    0.114195
   38          1                    0.106218
   39          1                    0.101941
   40          1                    0.120355
   41          1                    0.121298
   42          1                    0.102715
 -----------------------------------------------
    2   -2261.3297268649      2.80e-04  
         Merz-Kollman ESP Net Atomic Charges

     Atom                 Charge (a.u.)
  ----------------------------------------
      1 C                    -0.178929
      2 S                     0.970187
      3 O                    -0.599573
      4 O                    -0.641712
      5 N                    -0.937402
      6 H                     0.358113
      7 S                     0.097412
      8 C                    -0.249567
      9 C                    -0.015756
     10 C                    -0.094525
     11 S                     0.887467
     12 C                    -0.121361
     13 O                    -0.543883
     14 O                    -0.544509
     15 C                    -0.087864
     16 C                    -0.310623
     17 C                     0.482640
     18 C                    -0.317945
     19 C                    -0.092467
     20 H                     0.249097
     21 H                     0.156241
     22 H                     0.174020
     23 H                     0.180009
     24 H                     0.156270
     25 C                    -0.663165
     26 N                    -0.187941
     27 H                     0.202441
     28 H                     0.242835
     29 H                     0.195197
     30 C                    -0.120372
     31 C                    -0.081390
     32 C                    -0.081304
     33 C                    -0.072881
     34 O                    -0.325738
     35 H                     0.115027
     36 H                     0.132383
     37 H                     0.114775
     38 H                     0.106623
     39 H                     0.102282
     40 H                     0.121068
     41 H                     0.121836
     42 H                     0.102984
  ----------------------------------------
  Sum of atomic charges =    -1.000000

  Related Dipole Moment =    13.6166 (X  9.6024 Y -9.6243 Z -0.7595)


 Charges (in A.U.) from Merz-Kollman fitting 
 -----------------------------------------------
 Center     Atomic                  MZ       
 Number     Number                  Charge
 -----------------------------------------------
    1          6                   -0.178929
    2         16                    0.970187
    3          8                   -0.599573
    4          8                   -0.641712
    5          7                   -0.937402
    6          1                    0.358113
    7         16                    0.097412
    8          6                   -0.249567
    9          6                   -0.015756
   10          6                   -0.094525
   11         16                    0.887467
   12          6                   -0.121361
   13          8                   -0.543883
   14          8                   -0.544509
   15          6                   -0.087864
   16          6                   -0.310623
   17          6                    0.482640
   18          6                   -0.317945
   19          6                   -0.092467
   20          1                    0.249097
   21          1                    0.156241
   22          1                    0.174020
   23          1                    0.180009
   24          1                    0.156270
   25          6                   -0.663165
   26          7                   -0.187941
   27          1                    0.202441
   28          1                    0.242835
   29          1                    0.195197
   30          6                   -0.120372
   31          6                   -0.081390
   32          6                   -0.081304
   33          6                   -0.072881
   34          8                   -0.325738
   35          1                    0.115027
   36          1                    0.132383
   37          1                    0.114775
   38          1                    0.106623
   39          1                    0.102282
   40          1                    0.121068
   41          1                    0.121836
   42          1                    0.102984
 -----------------------------------------------
    3   -2261.3284297115      4.26e-05  
         Merz-Kollman ESP Net Atomic Charges

     Atom                 Charge (a.u.)
  ----------------------------------------
      1 C                    -0.183846
      2 S                     0.968567
      3 O                    -0.599101
      4 O                    -0.641119
      5 N                    -0.936388
      6 H                     0.357482
      7 S                     0.097318
      8 C                    -0.250033
      9 C                    -0.014302
     10 C                    -0.092201
     11 S                     0.889273
     12 C                    -0.120424
     13 O                    -0.545313
     14 O                    -0.545005
     15 C                    -0.087293
     16 C                    -0.312399
     17 C                     0.483203
     18 C                    -0.319564
     19 C                    -0.091539
     20 H                     0.249880
     21 H                     0.156125
     22 H                     0.173968
     23 H                     0.180828
     24 H                     0.156148
     25 C                    -0.665125
     26 N                    -0.187061
     27 H                     0.203187
     28 H                     0.243524
     29 H                     0.195805
     30 C                    -0.120746
     31 C                    -0.082471
     32 C                    -0.081569
     33 C                    -0.072764
     34 O                    -0.325220
     35 H                     0.115150
     36 H                     0.132380
     37 H                     0.115209
     38 H                     0.107045
     39 H                     0.102324
     40 H                     0.121300
     41 H                     0.121874
     42 H                     0.102893
  ----------------------------------------
  Sum of atomic charges =    -1.000000

  Related Dipole Moment =    13.6666 (X  9.6493 Y -9.6447 Z -0.8035)


 Charges (in A.U.) from Merz-Kollman fitting 
 -----------------------------------------------
 Center     Atomic                  MZ       
 Number     Number                  Charge
 -----------------------------------------------
    1          6                   -0.183846
    2         16                    0.968567
    3          8                   -0.599101
    4          8                   -0.641119
    5          7                   -0.936388
    6          1                    0.357482
    7         16                    0.097318
    8          6                   -0.250033
    9          6                   -0.014302
   10          6                   -0.092201
   11         16                    0.889273
   12          6                   -0.120424
   13          8                   -0.545313
   14          8                   -0.545005
   15          6                   -0.087293
   16          6                   -0.312399
   17          6                    0.483203
   18          6                   -0.319564
   19          6                   -0.091539
   20          1                    0.249880
   21          1                    0.156125
   22          1                    0.173968
   23          1                    0.180828
   24          1                    0.156148
   25          6                   -0.665125
   26          7                   -0.187061
   27          1                    0.203187
   28          1                    0.243524
   29          1                    0.195805
   30          6                   -0.120746
   31          6                   -0.082471
   32          6                   -0.081569
   33          6                   -0.072764
   34          8                   -0.325220
   35          1                    0.115150
   36          1                    0.132380
   37          1                    0.115209
   38          1                    0.107045
   39          1                    0.102324
   40          1                    0.121300
   41          1                    0.121874
   42          1                    0.102893
 -----------------------------------------------
    4   -2261.3280557552      2.42e-05  
    5   -2261.3278066452      6.26e-06  Convergence criterion met
 ---------------------------------------
 SCF time:   CPU 155.51s  wall 10.00s 
(0)  E-EN(g) gas-phase elect-nuc energy                -2261.338134553 a.u.
(1)  E-EN(liq) elect-nuc energy of solute              -2261.327806645 a.u.
(2)  G-P(liq) polarization free energy of solvation           -79.0345 kcal/mol
(3)  G-ENP(liq) elect-nuc-pol free energy of system    -2261.453756157 a.u.
(4)  G-CDS(liq) cavity-dispersion-solvent structure 
     free energy                                               -0.0431 kcal/mol
(5)  G-P-CDS(liq) = G-P(liq) + G-CDS(liq) = (2) + (4)         -79.0776 kcal/mol
(6)  G-S(liq) free energy of system = (1) + (5)        -2261.453824851 a.u.
(7)  DeltaE-EN(liq) elect-nuc reorganization
     energy of solute molecule (7) = (1) - (0)                  6.4809 kcal/mol
(8)  DeltaG-ENP(liq) elect-nuc-pol free energy
     of solvation (8) = (3) - (0)                             -72.5537 kcal/mol
(9)  DeltaG-S(liq) free energy of  solvation
     (9) = (6) - (0)                                          -72.5968 kcal/mol
 SCF   energy in the final basis set =    -2261.4538248507
 Total energy in the final basis set =    -2261.4538248507
 
 --------------------------------------------------------------
 
                    Orbital Energies (a.u.)
 --------------------------------------------------------------
 
 Alpha MOs
 -- Occupied --
-90.1491 -90.1275 -89.9735 -19.6464 -19.6452 -19.6425 -19.6061 -19.6041
-14.7584 -14.7134 -10.6100 -10.6035 -10.5969 -10.5951 -10.5908 -10.5906
-10.5824 -10.5786 -10.5772 -10.5767 -10.5750 -10.5687 -10.5678 -10.5668
-10.5665  -8.4666  -8.4395  -8.3226  -6.3885  -6.3881  -6.3876  -6.3618
 -6.3616  -6.3609  -6.2427  -6.2405  -6.2385  -1.2351  -1.1987  -1.1593
 -1.1277  -1.0798  -1.0390  -1.0135  -0.9836  -0.9624  -0.9014  -0.8711
 -0.8691  -0.8620  -0.8512  -0.8203  -0.7735  -0.7405  -0.7321  -0.7166
 -0.7104  -0.6790  -0.6496  -0.6472  -0.6337  -0.6234  -0.6018  -0.5811
 -0.5676  -0.5605  -0.5554  -0.5444  -0.5412  -0.5376  -0.5353  -0.5266
 -0.5192  -0.5170  -0.5062  -0.5022  -0.4954  -0.4896  -0.4883  -0.4770
 -0.4630  -0.4504  -0.4438  -0.4383  -0.4327  -0.4197  -0.4158  -0.4128
 -0.4108  -0.4069  -0.3993  -0.3878  -0.3844  -0.3750  -0.3740  -0.3681
 -0.3478  -0.3371  -0.3293  -0.3233  -0.3226  -0.3174  -0.3061  -0.2993
 -0.2907
 -- Virtual --
 -0.0230   0.0024   0.0147   0.0518   0.0552   0.1004   0.1060   0.1180
  0.1285   0.1342   0.1441   0.1468   0.1557   0.1684   0.1758   0.1778
  0.1842   0.1886   0.1907   0.1959   0.2001   0.2008   0.2059   0.2067
  0.2182   0.2194   0.2202   0.2233   0.2336   0.2361   0.2371   0.2404
  0.2512   0.2573   0.2643   0.2738   0.2861   0.2976   0.2990   0.3075
  0.3106   0.3185   0.3281   0.3366   0.3481   0.3608   0.3696   0.3806
  0.3879   0.3912   0.3996   0.4049   0.4309   0.4366   0.4523   0.4577
  0.4802   0.5159   0.5185   0.5445   0.5544   0.5590   0.5601   0.5798
  0.5883   0.5949   0.6070   0.6092   0.6113   0.6161   0.6214   0.6260
  0.6331   0.6335   0.6383   0.6409   0.6499   0.6523   0.6572   0.6684
  0.6743   0.6794   0.6871   0.6925   0.7155   0.7332   0.7365   0.7373
  0.7458   0.7647   0.7824   0.7916   0.8041   0.8109   0.8164   0.8243
  0.8270   0.8352   0.8387   0.8490   0.8569   0.8617   0.8649   0.8715
  0.8768   0.8813   0.8869   0.8928   0.8971   0.9016   0.9082   0.9139
  0.9171   0.9218   0.9271   0.9364   0.9478   0.9569   0.9586   0.9710
  0.9757   0.9815   0.9844   0.9882   0.9940   0.9957   1.0018   1.0135
  1.0189   1.0234   1.0247   1.0347   1.0495   1.0553   1.0629   1.0684
  1.0820   1.0882   1.0950   1.1059   1.1112   1.1191   1.1309   1.1313
  1.1354   1.1516   1.1620   1.1671   1.1709   1.1905   1.1942   1.2185
  1.2243   1.2332   1.2498   1.2602   1.2659   1.2714   1.2835   1.2900
  1.3064   1.3152   1.3290   1.3394   1.3557   1.3596   1.3831   1.3972
  1.4073   1.4177   1.4329   1.4428   1.4577   1.4699   1.4773   1.4857
  1.4912   1.5067   1.5213   1.5393   1.5444   1.5661   1.5720   1.5938
  1.6338   1.6399   1.6556   1.6709   1.6783   1.7033   1.7356   1.7438
  1.7562   1.7727   1.8008   1.8165   1.8233   1.8365   1.8399   1.8540
  1.8549   1.8649   1.8791   1.8830   1.8869   1.8922   1.8986   1.8995
  1.9052   1.9134   1.9414   1.9437   1.9565   1.9569   1.9650   1.9681
  1.9771   1.9944   2.0065   2.0212   2.0303   2.0401   2.0432   2.0509
  2.0614   2.0676   2.0730   2.0995   2.1078   2.1250   2.1294   2.1393
  2.1499   2.1651   2.1677   2.1750   2.1835   2.1929   2.1968   2.1982
  2.2036   2.2383   2.2441   2.2588   2.2656   2.2737   2.2920   2.3001
  2.3079   2.3151   2.3332   2.3349   2.3490   2.3579   2.3766   2.4007
  2.4126   2.4304   2.4479   2.4635   2.4829   2.4912   2.5061   2.5491
  2.5587   2.5775   2.6060   2.6314   2.6479   2.6514   2.6691   2.6967
  2.7265   2.7365   2.7584   2.7833   2.7887   2.7921   2.7956   2.8006
  2.8249   2.8625   2.8653   2.8750   2.8991   2.9348   2.9499   2.9678
  2.9817   3.0749   3.3832   3.7831   3.8401   3.8642   3.9469   3.9535
  4.0074   4.0659   4.0744   4.0858   4.1139   4.1381   4.1468   4.1675
  4.2076   4.2168   4.2502   4.3467   4.3533   4.3613   4.3908   4.4521
  4.5049   4.5425   4.5666   4.7267
 --------------------------------------------------------------
 
          Ground-State Mulliken Net Atomic Charges

     Atom                 Charge (a.u.)
  ----------------------------------------
      1 C                    -0.456451
      2 S                     1.051991
      3 O                    -0.700397
      4 O                    -0.685769
      5 N                    -0.854505
      6 H                     0.329509
      7 S                     0.363685
      8 C                    -0.344831
      9 C                    -0.142628
     10 C                    -0.094975
     11 S                     1.134418
     12 C                    -0.230794
     13 O                    -0.637665
     14 O                    -0.623637
     15 C                    -0.186425
     16 C                    -0.181929
     17 C                     0.111207
     18 C                    -0.171417
     19 C                    -0.168292
     20 H                     0.313021
     21 H                     0.243867
     22 H                     0.234680
     23 H                     0.222216
     24 H                     0.232824
     25 C                    -0.184239
     26 N                    -0.473253
     27 H                     0.222825
     28 H                     0.192522
     29 H                     0.153406
     30 C                    -0.159736
     31 C                    -0.146221
     32 C                    -0.065990
     33 C                    -0.066350
     34 O                    -0.561897
     35 H                     0.136976
     36 H                     0.181510
     37 H                     0.187015
     38 H                     0.140777
     39 H                     0.153046
     40 H                     0.189594
     41 H                     0.189231
     42 H                     0.153081
  ----------------------------------------
  Sum of atomic charges =    -1.000000

         Merz-Kollman ESP Net Atomic Charges

     Atom                 Charge (a.u.)
  ----------------------------------------
      1 C                    -0.182981
      2 S                     0.970814
      3 O                    -0.599886
      4 O                    -0.641845
      5 N                    -0.936985
      6 H                     0.357263
      7 S                     0.096752
      8 C                    -0.249598
      9 C                    -0.014580
     10 C                    -0.092726
     11 S                     0.889363
     12 C                    -0.121223
     13 O                    -0.545169
     14 O                    -0.544976
     15 C                    -0.087193
     16 C                    -0.312496
     17 C                     0.483968
     18 C                    -0.319622
     19 C                    -0.091570
     20 H                     0.249794
     21 H                     0.156147
     22 H                     0.173981
     23 H                     0.180881
     24 H                     0.156175
     25 C                    -0.665287
     26 N                    -0.187047
     27 H                     0.203232
     28 H                     0.243544
     29 H                     0.195823
     30 C                    -0.120693
     31 C                    -0.082681
     32 C                    -0.081331
     33 C                    -0.072560
     34 O                    -0.325399
     35 H                     0.115123
     36 H                     0.132376
     37 H                     0.115273
     38 H                     0.107093
     39 H                     0.102280
     40 H                     0.121282
     41 H                     0.121838
     42 H                     0.102847
  ----------------------------------------
  Sum of atomic charges =    -1.000000

  Related Dipole Moment =    13.6757 (X  9.6562 Y -9.6504 Z -0.8070)

 -----------------------------------------------------------------
                    Cartesian Multipole Moments
 -----------------------------------------------------------------
    Charge (ESU x 10^10)
                -4.8032
    Dipole Moment (Debye)
         X       9.5726      Y      -9.5763      Z      -0.7890
       Tot      13.5633
    Quadrupole Moments (Debye-Ang)
        XX    -212.2665     XY      -0.3364     YY    -175.5438
        XZ      27.7205     YZ      19.5458     ZZ    -196.2684
    Octopole Moments (Debye-Ang^2)
       XXX    -831.5138    XXY     255.9401    XYY    -247.1217
       YYY     433.5381    XXZ     606.0188    XYZ       3.1126
       YYZ     517.7475    XZZ    -378.0257    YZZ      80.4173
       ZZZ    1720.6012
    Hexadecapole Moments (Debye-Ang^3)
      XXXX  -15374.2579   XXXY    5384.9872   XXYY   -4062.7269
      XYYY    3970.0981   YYYY   -6865.5551   XXXZ    6158.5413
      XXYZ   -1686.2531   XYYZ    1853.1114   YYYZ   -2685.4104
      XXZZ   -5281.4678   XYZZ    1551.3010   YYZZ   -3711.7963
      XZZZ    5733.0568   YZZZ   -2717.9331   ZZZZ  -15447.5300
 -----------------------------------------------------------------
 Total job time:  24.49s(wall), 344.12s(cpu) 
 Sat May 28 16:45:27 2022

        *************************************************************
        *                                                           *
        *  Thank you very much for using Q-Chem.  Have a nice day.  *
        *                                                           *
        *************************************************************


