                  Welcome to Q-Chem
     A Quantum Leap Into The Future Of Chemistry


 Q-Chem 5.4 (devel), Q-Chem, Inc., Pleasanton, CA (2021)

 E. Epifanovsky,  A. T. B. Gilbert,  Xintian Feng,  Joonho Lee,  Yuezhi Mao,  
 N. Mardirossian,  P. Pokhilko,  A. White,  M. Wormit,  M. P. Coons,  
 A. L. Dempwolff,  Zhengting Gan,  D. Hait,  P. R. Horn,  L. D. Jacobson,  
 I. Kaliman,  J. Kussmann,  A. W. Lange,  Ka Un Lao,  D. S. Levine,  Jie Liu,  
 S. C. McKenzie,  A. F. Morrison,  K. Nanda,  F. Plasser,  D. R. Rehn,  
 M. L. Vidal,  Zhi-Qiang You,  Ying Zhu,  B. Alam,  B. Albrecht,  
 A. Aldossary,  E. Alguire,  J. H. Andersen,  D. Barton,  K. Begam,  A. Behn,  
 Y. A. Bernard,  E. J. Berquist,  H. Burton,  A. Carreras,  K. Carter-Fenk,  
 R. Chakraborty,  A. D. Chien,  K. D. Closser,  V. Cofer-Shabica,  
 S. Dasgupta,  Jia Deng,  M. de Wergifosse,  M. Diedenhofen,  Hainam Do,  
 S. Ehlert,  Po-Tung Fang,  S. Fatehi,  Qingguo Feng,  T. Friedhoff,  
 J. Gayvert,  Qinghui Ge,  G. Gidofalvi,  M. Goldey,  J. Gomes,  
 C. Gonzalez-Espinoza,  S. Gulania,  A. Gunina,  M. W. D. Hanson-Heine,  
 P. H. P. Harbach,  A. W. Hauser,  M. F. Herbst,  M. Hernandez Vera,  
 M. Hodecker,  Z. C. Holden,  S. Houck,  Xunkun Huang,  Kerwin Hui,  
 B. C. Huynh,  M. Ivanov,  Hyunjun Ji,  Hanjie Jiang,  B. Kaduk,  S. Kaehler,  
 K. Khistyaev,  Jaehoon Kim,  P. Klunzinger,  Z. Koczor-Benda,  
 Joong Hoon Koh,  D. Kosenkov,  L. Koulias,  T. Kowalczyk,  C. M. Krauter,  
 K. Kue,  A. Kunitsa,  T. Kus,  A. Landau,  K. V. Lawler,  D. Lefrancois,  
 S. Lehtola,  Rain Li,  Yi-Pei Li,  Jiashu Liang,  M. Liebenthal,  
 Hung-Hsuan Lin,  You-Sheng Lin,  Fenglai Liu,  Kuan-Yu Liu,  
 M. Loipersberger,  A. Luenser,  A. Manjanath,  P. Manohar,  E. Mansoor,  
 S. F. Manzer,  Shan-Ping Mao,  A. V. Marenich,  T. Markovich,  S. Mason,  
 S. A. Maurer,  P. F. McLaughlin,  M. F. S. J. Menger,  J.-M. Mewes,  
 S. A. Mewes,  P. Morgante,  J. W. Mullinax,  K. J. Oosterbaan,  G. Paran,  
 Alexander C. Paul,  Suranjan K. Paul,  F. Pavosevic,  Zheng Pei,  S. Prager,  
 E. I. Proynov,  E. Ramos,  B. Rana,  A. E. Rask,  A. Rettig,  R. M. Richard,  
 F. Rob,  E. Rossomme,  T. Scheele,  M. Scheurer,  M. Schneider,  
 N. Sergueev,  S. M. Sharada,  W. Skomorowski,  D. W. Small,  C. J. Stein,  
 Yu-Chuan Su,  E. J. Sundstrom,  Zhen Tao,  J. Thirman,  T. Tsuchimochi,  
 N. M. Tubman,  S. P. Veccham,  O. Vydrov,  J. Wenzel,  J. Witte,  A. Yamada,  
 Kun Yao,  S. Yeganeh,  S. R. Yost,  A. Zech,  Igor Ying Zhang,  Xing Zhang,  
 Yu Zhang,  D. Zuev,  A. Aspuru-Guzik,  A. T. Bell,  N. A. Besley,  
 K. B. Bravaya,  B. R. Brooks,  D. Casanova,  Jeng-Da Chai,  S. Coriani,  
 C. J. Cramer,  A. E. DePrince, III,  R. A. DiStasio Jr.,  A. Dreuw,  
 B. D. Dunietz,  T. R. Furlani,  W. A. Goddard III,  S. Grimme,  
 S. Hammes-Schiffer,  T. Head-Gordon,  W. J. Hehre,  Chao-Ping Hsu,  
 T.-C. Jagau,  Yousung Jung,  A. Klamt,  Jing Kong,  D. S. Lambrecht,  
 WanZhen Liang,  N. J. Mayhall,  C. W. McCurdy,  J. B. Neaton,  
 C. Ochsenfeld,  J. A. Parkhill,  R. Peverati,  V. A. Rassolov,  Yihan Shao,  
 L. V. Slipchenko,  T. Stauch,  R. P. Steele,  J. E. Subotnik,  
 A. J. W. Thom,  A. Tkatchenko,  D. G. Truhlar,  T. Van Voorhis,  
 T. A. Wesolowski,  K. B. Whaley,  H. L. Woodcock III,  P. M. Zimmerman,  
 S. Faraji,  P. M. W. Gill,  M. Head-Gordon,  J. M. Herbert,  A. I. Krylov

 Additional authors for Version 5.4.1: 
 S. Kotaru,  Shaozhi Li,  Xiangyuan Li,  F. Matz,  A. Molle,  Haisheng Ren,  
 Yingli Su,  Hung-Yi Tsai,  C. Utku,  Fang Wang

 Contributors to earlier versions of Q-Chem not listed above: 
 R. D. Adamson,  B. Austin,  R. Baer,  J. Baker,  G. J. O. Beran,  
 K. Brandhorst,  S. T. Brown,  E. F. C. Byrd,  A. K. Chakraborty,  
 G. K. L. Chan,  Chun-Min Chang,  Yunqing Chen,  C.-L. Cheng,  
 Siu Hung Chien,  D. M. Chipman,  D. L. Crittenden,  H. Dachsel,  
 R. J. Doerksen,  A. D. Dutoi,  R. G. Edgar,  J. Fosso-Tande,  
 L. Fusti-Molnar,  D. Ghosh,  A. Ghysels,  A. Golubeva-Zadorozhnaya,  
 J. Gonthier,  M. S. Gordon,  S. R. Gwaltney,  G. Hawkins,  J. E. Herr,  
 A. Heyden,  S. Hirata,  E. G. Hohenstein,  G. Kedziora,  F. J. Keil,  
 C. Kelley,  Jihan Kim,  R. A. King,  R. Z. Khaliullin,  P. P. Korambath,  
 W. Kurlancheek,  A. Laurent,  A. M. Lee,  M. S. Lee,  S. V. Levchenko,  
 Ching Yeh Lin,  D. Liotard,  E. Livshits,  R. C. Lochan,  I. Lotan,  
 L. A. Martinez-Martinez,  P. E. Maslen,  N. Nair,  D. P. O'Neill,  
 D. Neuhauser,  E. Neuscamman,  C. M. Oana,  R. Olivares-Amaya,  R. Olson,  
 T. M. Perrine,  B. Peters,  P. A. Pieniazek,  A. Prociuk,  Y. M. Rhee,  
 J. Ritchie,  M. A. Rohrdanz,  E. Rosta,  N. J. Russ,  H. F. Schaefer III,  
 M. W. Schmidt,  N. E. Schultz,  S. Sharma,  N. Shenvi,  C. D. Sherrill,  
 A. C. Simmonett,  A. Sodt,  T. Stein,  D. Stuck,  K. S. Thanthiriwatte,  
 V. Vanovschi,  L. Vogt,  Tao Wang,  A. Warshel,  M. A. Watson,  
 C. F. Williams,  Q. Wu,  X. Xu,  Jun Yang,  W. Zhang,  Yan Zhao

 Please cite Q-Chem as follows:
 Y. Shao et al., Mol. Phys. 113, 184-215 (2015)
 DOI: 10.1080/00268976.2014.952696

 Q-Chem 5.4.1 for Intel X86 EM64T Linux

 Parts of Q-Chem use Armadillo 9.800.1 (Horizon Scraper).
 http://arma.sourceforge.net/

 Q-Chem begins on Fri May 27 13:02:32 2022  

 Host: gadi-cpu-clx-0251.gadi.nci.org.au
0

     Scratch files written to /jobfs/41470213.gadi-pbs/qchem156310//
 Processing $rem in /apps/qchem/5.4.1/config/preferences:
 Processing $rem in /home/561/yj5695/.qchemrc:
 Symmetry turned off for PCM/SM12/SMD calculation
 Method-specific promolecule density matrix will be built for SM12 calculation

 Checking the input file for inconsistencies... 	...done.

--------------------------------------------------------------
User input:
--------------------------------------------------------------
$molecule
-1  1
C -1.5721811353  0.9505709011 -0.6182101383
S -1.756448702  0.5327645399  1.1283482393
O -3.2234234606  0.5965318428  1.3308551537
O -1.1670256031 -0.8305603095  1.1899627556
N -1.0552571391  1.6161786144  1.9908361306
H -0.0443218808  1.4620553653  1.9453646215
S -2.7468525641  1.9315498294 -1.402487597
C -1.7961627131  1.9857493508 -2.8381245716
C -0.6317891427  1.2681185867 -2.6760402141
C -0.486515624  0.6641065591 -1.4049169813
C -2.2508402455  2.6986552461 -4.0460689088
S  0.5343444227  1.1196339694 -3.9999594455
O  0.2161893196 -0.0830576604 -4.7860383127
O  1.8903138341  1.2265368379 -3.4431360363
H  0.3631736795  0.0683525344 -1.0888174703
C -1.3563790989  2.6383369734 -5.2647354107
C  0.1371006511  2.5755299527 -4.9538430529
O -3.3260293518  3.2775698251 -4.0614995761
H -1.5547086742  3.5226725533 -5.8750419278
H -1.6639784816  1.760056118 -5.8473460873
H  0.478119897  3.4298232456 -4.3617601322
H  0.7352800128  2.5034261244 -5.8674220378
$end

$rem
jobtype sp
exchange M062X
basis 6-31+G*
SMX_GAS_PHASE = TRUE
solvent_method sm12
$end

$smx
solvent water
charges mk
$end
--------------------------------------------------------------
 ----------------------------------------------------------------
             Standard Nuclear Orientation (Angstroms)
    I     Atom           X                Y                Z
 ----------------------------------------------------------------
    1      C      -1.5721811353     0.9505709011    -0.6182101383
    2      S      -1.7564487020     0.5327645399     1.1283482393
    3      O      -3.2234234606     0.5965318428     1.3308551537
    4      O      -1.1670256031    -0.8305603095     1.1899627556
    5      N      -1.0552571391     1.6161786144     1.9908361306
    6      H      -0.0443218808     1.4620553653     1.9453646215
    7      S      -2.7468525641     1.9315498294    -1.4024875970
    8      C      -1.7961627131     1.9857493508    -2.8381245716
    9      C      -0.6317891427     1.2681185867    -2.6760402141
   10      C      -0.4865156240     0.6641065591    -1.4049169813
   11      C      -2.2508402455     2.6986552461    -4.0460689088
   12      S       0.5343444227     1.1196339694    -3.9999594455
   13      O       0.2161893196    -0.0830576604    -4.7860383127
   14      O       1.8903138341     1.2265368379    -3.4431360363
   15      H       0.3631736795     0.0683525344    -1.0888174703
   16      C      -1.3563790989     2.6383369734    -5.2647354107
   17      C       0.1371006511     2.5755299527    -4.9538430529
   18      O      -3.3260293518     3.2775698251    -4.0614995761
   19      H      -1.5547086742     3.5226725533    -5.8750419278
   20      H      -1.6639784816     1.7600561180    -5.8473460873
   21      H       0.4781198970     3.4298232456    -4.3617601322
   22      H       0.7352800128     2.5034261244    -5.8674220378
 ----------------------------------------------------------------
 Nuclear Repulsion Energy =        1571.57892609 hartrees
 There are       72 alpha and       72 beta electrons
 Requested basis set is 6-31+G(d)
 There are 95 shells and 328 basis functions

 Total QAlloc Memory Limit   2000 MB
 Mega-Array Size       188 MB
 MEM_STATIC part       192 MB
 A cutoff of  1.0D-08 yielded   3310 shell pairs
 There are     42073 function pairs
 Smallest overlap matrix eigenvalue = 9.79E-07

 Q-Chem warning in module stvman/mkSTV.C, line 323:

 Overlap eigenvalue is smaller than square root of threshold
 Use THRESH >= 12 to get rid of this warning

 Linear dependence detected in AO basis
 Tighter screening thresholds may be required for diffuse basis sets
 Use S2THRESH > 14 and THRESH = 14 in case of SCF convergence issues
 Number of orthogonalized atomic orbitals = 327
 Maximum deviation from orthogonality = 8.239E-11

 Scale SEOQF with 1.000000e-01/1.000000e-01/1.000000e-02

 Standard Electronic Orientation quadrupole field applied
 Nucleus-field energy     =     0.0000000313 hartrees
 ================ Generating on-the-fly Promolecule Density  ================
Attempting to make child job directory: /jobfs/41470213.gadi-pbs/qchem156310//Frg1/
Attempting to make child job directory: /jobfs/41470213.gadi-pbs/qchem156310//Frg2/
Attempting to make child job directory: /jobfs/41470213.gadi-pbs/qchem156310//Frg3/
Attempting to make child job directory: /jobfs/41470213.gadi-pbs/qchem156310//Frg4/
Attempting to make child job directory: /jobfs/41470213.gadi-pbs/qchem156310//Frg5/
Creating input file /jobfs/41470213.gadi-pbs/qchem156310/Frg1.input
using default PutDataFrgm: nothing
calling putenv with: QCSCRATCH=/jobfs/41470213.gadi-pbs/qchem156310/ 
Spawning Job For Fragment 0
Done Job For Fragment 0
calling putenv with: QCSCRATCH=/jobfs/41470213.gadi-pbs 
calling putenv with: QCTHREADS=16 
Creating input file /jobfs/41470213.gadi-pbs/qchem156310/Frg2.input
using default PutDataFrgm: nothing
calling putenv with: QCSCRATCH=/jobfs/41470213.gadi-pbs/qchem156310/ 
Spawning Job For Fragment 1
Done Job For Fragment 1
calling putenv with: QCSCRATCH=/jobfs/41470213.gadi-pbs 
calling putenv with: QCTHREADS=16 
Creating input file /jobfs/41470213.gadi-pbs/qchem156310/Frg3.input
using default PutDataFrgm: nothing
calling putenv with: QCSCRATCH=/jobfs/41470213.gadi-pbs/qchem156310/ 
Spawning Job For Fragment 2
Done Job For Fragment 2
calling putenv with: QCSCRATCH=/jobfs/41470213.gadi-pbs 
calling putenv with: QCTHREADS=16 
Creating input file /jobfs/41470213.gadi-pbs/qchem156310/Frg4.input
using default PutDataFrgm: nothing
calling putenv with: QCSCRATCH=/jobfs/41470213.gadi-pbs/qchem156310/ 
Spawning Job For Fragment 3
Done Job For Fragment 3
calling putenv with: QCSCRATCH=/jobfs/41470213.gadi-pbs 
calling putenv with: QCTHREADS=16 
Creating input file /jobfs/41470213.gadi-pbs/qchem156310/Frg5.input
using default PutDataFrgm: nothing
calling putenv with: QCSCRATCH=/jobfs/41470213.gadi-pbs/qchem156310/ 
Spawning Job For Fragment 4
Done Job For Fragment 4
calling putenv with: QCSCRATCH=/jobfs/41470213.gadi-pbs 
calling putenv with: QCTHREADS=16 
 Time for running child jobs:  CPU 2.08 s  wall 2.16 s
 ============= Method Specific Promolecule Density Constructed =============
 Guess from superposition of atomic densities
 Warning:  Energy on first SCF cycle will be non-variational
 SAD guess density has 143.000000 electrons

 -----------------------------------------------------------------------
  General SCF calculation program by
  Eric Jon Sundstrom, Paul Horn, Yuezhi Mao, Dmitri Zuev, Alec White,
  David Stuck, Shaama M.S., Shane Yost, Joonho Lee, David Small,
  Daniel Levine, Susi Lehtola, Hugh Burton, Evgeny Epifanovsky,
  Bang C. Huynh
 -----------------------------------------------------------------------
 Exchange:     0.5400 Hartree-Fock + 1.0000 M06-2X
 Correlation:  1.0000 M06-2X
 Using SG-3 standard quadrature grid
 using 16 threads for integral computing
 -------------------------------------------------------
 OpenMP Integral computing Module                
 Release: version 1.0, May 2013, Q-Chem Inc. Pittsburgh 
 -------------------------------------------------------
 A restricted SCF calculation will be
 performed using DIIS
 SCF converges when DIIS error is below 1.0e-05
 ---------------------------------------
  Cycle       Energy         DIIS error
 ---------------------------------------
    1   -1900.3998844790      4.29e-02  
    2   -1894.8414009589      6.65e-03  
    3   -1894.3140138485      1.00e-02  
    4   -1895.3261004484      1.08e-03  
    5   -1895.3383639165      5.24e-04  
    6   -1895.3414401449      1.44e-04  
    7   -1895.3416955399      4.61e-05  
    8   -1895.3417216551      1.49e-05  
    9   -1895.3417257844      6.99e-06  Convergence criterion met
 ---------------------------------------
 SCF time:   CPU 181.70s  wall 13.00s 
 SCF   energy in the final basis set =    -1895.3417257844
 Total energy in the final basis set =    -1895.3417257844
 Exchange:     0.5400 Hartree-Fock + 1.0000 M06-2X
 Correlation:  1.0000 M06-2X
 Using SG-3 standard quadrature grid
 
 SM12 calculation using Merz-Singh-Kollman charges
 Citation of the SM12 model:
 Marenich, A.V.; Cramer, C.J.; Truhlar, D.G.
 J. Chem. Theory Comput. 2013, 9, 609-612.
 iSolventCode=           1
 Solvent: water                                                           
 
  Building new vdw surfaces
         Merz-Kollman ESP Net Atomic Charges

     Atom                 Charge (a.u.)
  ----------------------------------------
      1 C                    -0.188079
      2 S                     1.126381
      3 O                    -0.582171
      4 O                    -0.651631
      5 N                    -0.942013
      6 H                     0.351096
      7 S                     0.156955
      8 C                    -0.153057
      9 C                    -0.087930
     10 C                    -0.128990
     11 C                     0.580410
     12 S                     0.934434
     13 O                    -0.524796
     14 O                    -0.559024
     15 H                     0.206897
     16 C                    -0.220839
     17 C                    -0.364705
     18 O                    -0.529360
     19 H                     0.114289
     20 H                     0.116767
     21 H                     0.160049
     22 H                     0.185314
  ----------------------------------------
  Sum of atomic charges =    -1.000000

  Related Dipole Moment =     9.4156 (X  8.8560 Y -1.1681 Z -2.9767)


 Charges (in A.U.) from Merz-Kollman fitting 
 -----------------------------------------------
 Center     Atomic                  MZ       
 Number     Number                  Charge
 -----------------------------------------------
    1          6                   -0.188079
    2         16                    1.126381
    3          8                   -0.582171
    4          8                   -0.651631
    5          7                   -0.942013
    6          1                    0.351096
    7         16                    0.156955
    8          6                   -0.153057
    9          6                   -0.087930
   10          6                   -0.128990
   11          6                    0.580410
   12         16                    0.934434
   13          8                   -0.524796
   14          8                   -0.559024
   15          1                    0.206897
   16          6                   -0.220839
   17          6                   -0.364705
   18          8                   -0.529360
   19          1                    0.114289
   20          1                    0.116767
   21          1                    0.160049
   22          1                    0.185314
 -----------------------------------------------
 A restricted SCF calculation will be
 performed using Roothaan-Hall, DIIS
 SCF converges when DIIS error is below 1.0e-05
 ---------------------------------------
  Cycle       Energy         DIIS error
 ---------------------------------------
         Merz-Kollman ESP Net Atomic Charges

     Atom                 Charge (a.u.)
  ----------------------------------------
      1 C                    -0.248992
      2 S                     1.149080
      3 O                    -0.626672
      4 O                    -0.687940
      5 N                    -0.994439
      6 H                     0.376759
      7 S                     0.138879
      8 C                    -0.064194
      9 C                    -0.102614
     10 C                    -0.097342
     11 C                     0.605594
     12 S                     0.978539
     13 O                    -0.564726
     14 O                    -0.604995
     15 H                     0.217933
     16 C                    -0.189921
     17 C                    -0.356348
     18 O                    -0.572220
     19 H                     0.136039
     20 H                     0.119720
     21 H                     0.176796
     22 H                     0.211063
  ----------------------------------------
  Sum of atomic charges =    -1.000000

  Related Dipole Moment =    11.3769 (X  9.5532 Y  0.2051 Z -6.1749)


 Charges (in A.U.) from Merz-Kollman fitting 
 -----------------------------------------------
 Center     Atomic                  MZ       
 Number     Number                  Charge
 -----------------------------------------------
    1          6                   -0.248992
    2         16                    1.149080
    3          8                   -0.626672
    4          8                   -0.687940
    5          7                   -0.994439
    6          1                    0.376759
    7         16                    0.138879
    8          6                   -0.064194
    9          6                   -0.102614
   10          6                   -0.097342
   11          6                    0.605594
   12         16                    0.978539
   13          8                   -0.564726
   14          8                   -0.604995
   15          1                    0.217933
   16          6                   -0.189921
   17          6                   -0.356348
   18          8                   -0.572220
   19          1                    0.136039
   20          1                    0.119720
   21          1                    0.176796
   22          1                    0.211063
 -----------------------------------------------
    1   -1895.3417263706      5.33e-04  Roothaan Step
 ---------------------------------------
  Cycle       Energy         DIIS error
 ---------------------------------------
         Merz-Kollman ESP Net Atomic Charges

     Atom                 Charge (a.u.)
  ----------------------------------------
      1 C                    -0.165047
      2 S                     1.168443
      3 O                    -0.629358
      4 O                    -0.702158
      5 N                    -1.004037
      6 H                     0.366402
      7 S                     0.163420
      8 C                    -0.150530
      9 C                    -0.112653
     10 C                    -0.136869
     11 C                     0.560958
     12 S                     0.936967
     13 O                    -0.527376
     14 O                    -0.567098
     15 H                     0.227898
     16 C                    -0.219240
     17 C                    -0.456777
     18 O                    -0.514873
     19 H                     0.161755
     20 H                     0.140186
     21 H                     0.208503
     22 H                     0.251484
  ----------------------------------------
  Sum of atomic charges =    -1.000000

  Related Dipole Moment =    11.1702 (X  9.3168 Y  0.0716 Z -6.1617)


 Charges (in A.U.) from Merz-Kollman fitting 
 -----------------------------------------------
 Center     Atomic                  MZ       
 Number     Number                  Charge
 -----------------------------------------------
    1          6                   -0.165047
    2         16                    1.168443
    3          8                   -0.629358
    4          8                   -0.702158
    5          7                   -1.004037
    6          1                    0.366402
    7         16                    0.163420
    8          6                   -0.150530
    9          6                   -0.112653
   10          6                   -0.136869
   11          6                    0.560958
   12         16                    0.936967
   13          8                   -0.527376
   14          8                   -0.567098
   15          1                    0.227898
   16          6                   -0.219240
   17          6                   -0.456777
   18          8                   -0.514873
   19          1                    0.161755
   20          1                    0.140186
   21          1                    0.208503
   22          1                    0.251484
 -----------------------------------------------
    1   -1895.3282325802      4.18e-04  
         Merz-Kollman ESP Net Atomic Charges

     Atom                 Charge (a.u.)
  ----------------------------------------
      1 C                    -0.228392
      2 S                     1.178008
      3 O                    -0.635878
      4 O                    -0.703010
      5 N                    -1.009345
      6 H                     0.371191
      7 S                     0.147683
      8 C                    -0.089431
      9 C                    -0.101617
     10 C                    -0.110786
     11 C                     0.592835
     12 S                     0.970828
     13 O                    -0.552699
     14 O                    -0.594665
     15 H                     0.223085
     16 C                    -0.212768
     17 C                    -0.416165
     18 O                    -0.553837
     19 H                     0.154715
     20 H                     0.134935
     21 H                     0.198295
     22 H                     0.237017
  ----------------------------------------
  Sum of atomic charges =    -1.000000

  Related Dipole Moment =    11.6005 (X  9.5164 Y  0.2780 Z -6.6281)


 Charges (in A.U.) from Merz-Kollman fitting 
 -----------------------------------------------
 Center     Atomic                  MZ       
 Number     Number                  Charge
 -----------------------------------------------
    1          6                   -0.228392
    2         16                    1.178008
    3          8                   -0.635878
    4          8                   -0.703010
    5          7                   -1.009345
    6          1                    0.371191
    7         16                    0.147683
    8          6                   -0.089431
    9          6                   -0.101617
   10          6                   -0.110786
   11          6                    0.592835
   12         16                    0.970828
   13          8                   -0.552699
   14          8                   -0.594665
   15          1                    0.223085
   16          6                   -0.212768
   17          6                   -0.416165
   18          8                   -0.553837
   19          1                    0.154715
   20          1                    0.134935
   21          1                    0.198295
   22          1                    0.237017
 -----------------------------------------------
    2   -1895.3291926243      5.61e-04  
         Merz-Kollman ESP Net Atomic Charges

     Atom                 Charge (a.u.)
  ----------------------------------------
      1 C                    -0.226184
      2 S                     1.181528
      3 O                    -0.638784
      4 O                    -0.706381
      5 N                    -1.014258
      6 H                     0.372553
      7 S                     0.150132
      8 C                    -0.091575
      9 C                    -0.107776
     10 C                    -0.107797
     11 C                     0.586975
     12 S                     0.964597
     13 O                    -0.550358
     14 O                    -0.592020
     15 H                     0.223676
     16 C                    -0.209446
     17 C                    -0.415508
     18 O                    -0.547041
     19 H                     0.155825
     20 H                     0.134329
     21 H                     0.199051
     22 H                     0.238464
  ----------------------------------------
  Sum of atomic charges =    -1.000000

  Related Dipole Moment =    11.6842 (X  9.5050 Y  0.3539 Z -6.7861)


 Charges (in A.U.) from Merz-Kollman fitting 
 -----------------------------------------------
 Center     Atomic                  MZ       
 Number     Number                  Charge
 -----------------------------------------------
    1          6                   -0.226184
    2         16                    1.181528
    3          8                   -0.638784
    4          8                   -0.706381
    5          7                   -1.014258
    6          1                    0.372553
    7         16                    0.150132
    8          6                   -0.091575
    9          6                   -0.107776
   10          6                   -0.107797
   11          6                    0.586975
   12         16                    0.964597
   13          8                   -0.550358
   14          8                   -0.592020
   15          1                    0.223676
   16          6                   -0.209446
   17          6                   -0.415508
   18          8                   -0.547041
   19          1                    0.155825
   20          1                    0.134329
   21          1                    0.199051
   22          1                    0.238464
 -----------------------------------------------
    3   -1895.3283102406      7.13e-05  
         Merz-Kollman ESP Net Atomic Charges

     Atom                 Charge (a.u.)
  ----------------------------------------
      1 C                    -0.228432
      2 S                     1.181791
      3 O                    -0.638601
      4 O                    -0.706831
      5 N                    -1.015220
      6 H                     0.371870
      7 S                     0.150119
      8 C                    -0.091715
      9 C                    -0.105870
     10 C                    -0.107663
     11 C                     0.588726
     12 S                     0.965529
     13 O                    -0.550141
     14 O                    -0.592134
     15 H                     0.223999
     16 C                    -0.210823
     17 C                    -0.421158
     18 O                    -0.548276
     19 H                     0.157458
     20 H                     0.135546
     21 H                     0.201022
     22 H                     0.240803
  ----------------------------------------
  Sum of atomic charges =    -1.000000

  Related Dipole Moment =    11.7442 (X  9.5188 Y  0.3638 Z -6.8693)


 Charges (in A.U.) from Merz-Kollman fitting 
 -----------------------------------------------
 Center     Atomic                  MZ       
 Number     Number                  Charge
 -----------------------------------------------
    1          6                   -0.228432
    2         16                    1.181791
    3          8                   -0.638601
    4          8                   -0.706831
    5          7                   -1.015220
    6          1                    0.371870
    7         16                    0.150119
    8          6                   -0.091715
    9          6                   -0.105870
   10          6                   -0.107663
   11          6                    0.588726
   12         16                    0.965529
   13          8                   -0.550141
   14          8                   -0.592134
   15          1                    0.223999
   16          6                   -0.210823
   17          6                   -0.421158
   18          8                   -0.548276
   19          1                    0.157458
   20          1                    0.135546
   21          1                    0.201022
   22          1                    0.240803
 -----------------------------------------------
    4   -1895.3275633062      4.00e-05  
    5   -1895.3270904570      8.97e-06  Convergence criterion met
 ---------------------------------------
 SCF time:   CPU 159.21s  wall 10.00s 
(0)  E-EN(g) gas-phase elect-nuc energy                -1895.341725784 a.u.
(1)  E-EN(liq) elect-nuc energy of solute              -1895.327090457 a.u.
(2)  G-P(liq) polarization free energy of solvation           -78.9471 kcal/mol
(3)  G-ENP(liq) elect-nuc-pol free energy of system    -1895.452900704 a.u.
(4)  G-CDS(liq) cavity-dispersion-solvent structure 
     free energy                                                4.0829 kcal/mol
(5)  G-P-CDS(liq) = G-P(liq) + G-CDS(liq) = (2) + (4)         -74.8642 kcal/mol
(6)  G-S(liq) free energy of system = (1) + (5)        -1895.446394201 a.u.
(7)  DeltaE-EN(liq) elect-nuc reorganization
     energy of solute molecule (7) = (1) - (0)                  9.1838 kcal/mol
(8)  DeltaG-ENP(liq) elect-nuc-pol free energy
     of solvation (8) = (3) - (0)                             -69.7633 kcal/mol
(9)  DeltaG-S(liq) free energy of  solvation
     (9) = (6) - (0)                                          -65.6804 kcal/mol
 SCF   energy in the final basis set =    -1895.4463942006
 Total energy in the final basis set =    -1895.4463942006
 
 --------------------------------------------------------------
 
                    Orbital Energies (a.u.)
 --------------------------------------------------------------
 
 Alpha MOs
 -- Occupied --
-90.1631 -90.1519 -89.9935 -19.6699 -19.6641 -19.6626 -19.6360 -19.6341
-14.7381 -10.6822 -10.6288 -10.6272 -10.6235 -10.6094 -10.5995 -10.5878
 -8.4813  -8.4640  -8.3406  -6.4028  -6.4025  -6.4021  -6.3864  -6.3861
 -6.3852  -6.2607  -6.2585  -6.2565  -1.2516  -1.2269  -1.1998  -1.1426
 -1.1115  -1.0369  -0.9842  -0.9558  -0.8865  -0.8774  -0.8315  -0.7617
 -0.7378  -0.6967  -0.6572  -0.6341  -0.6122  -0.5937  -0.5793  -0.5731
 -0.5684  -0.5554  -0.5489  -0.5345  -0.5294  -0.5102  -0.4919  -0.4900
 -0.4827  -0.4544  -0.4485  -0.4375  -0.4268  -0.4246  -0.4086  -0.4030
 -0.3949  -0.3806  -0.3758  -0.3604  -0.3493  -0.3440  -0.3403  -0.3065
 -- Virtual --
 -0.0718  -0.0180  -0.0093   0.0052   0.0066   0.0118   0.0161   0.0225
  0.0317   0.0360   0.0393   0.0435   0.0469   0.0497   0.0546   0.0611
  0.0714   0.0734   0.0785   0.0846   0.0910   0.0943   0.0974   0.0990
  0.1051   0.1092   0.1155   0.1218   0.1270   0.1287   0.1327   0.1391
  0.1428   0.1456   0.1523   0.1589   0.1666   0.1680   0.1710   0.1814
  0.1852   0.1866   0.1903   0.1927   0.2036   0.2114   0.2132   0.2198
  0.2274   0.2304   0.2338   0.2385   0.2435   0.2455   0.2540   0.2592
  0.2637   0.2711   0.2723   0.2777   0.2816   0.2841   0.2976   0.2995
  0.3003   0.3063   0.3073   0.3116   0.3140   0.3183   0.3297   0.3310
  0.3400   0.3419   0.3447   0.3582   0.3621   0.3735   0.3795   0.3860
  0.3926   0.4039   0.4101   0.4216   0.4338   0.4511   0.4574   0.4798
  0.5249   0.5416   0.5541   0.5649   0.5937   0.5996   0.6268   0.6290
  0.6323   0.6472   0.6620   0.6766   0.6831   0.6873   0.7024   0.7083
  0.7187   0.7334   0.7377   0.7403   0.7466   0.7592   0.7720   0.7870
  0.8000   0.8251   0.8573   0.8696   0.8889   0.9120   0.9252   0.9509
  0.9538   0.9702   0.9811   1.0018   1.0124   1.0185   1.0245   1.0427
  1.0610   1.0668   1.0792   1.0952   1.0991   1.1107   1.1244   1.1486
  1.1534   1.1703   1.1792   1.1821   1.1855   1.1953   1.2072   1.2168
  1.2382   1.2412   1.2705   1.3077   1.3215   1.3238   1.3305   1.3361
  1.3450   1.3515   1.3614   1.3734   1.3765   1.3839   1.3922   1.4008
  1.4098   1.4231   1.4307   1.4314   1.4421   1.4647   1.4693   1.4943
  1.5014   1.5459   1.5519   1.5669   1.5942   1.6332   1.6755   1.6909
  1.7462   1.7568   1.7713   1.7737   1.7823   1.7979   1.8087   1.8192
  1.8400   1.8503   1.8566   1.8644   1.8743   1.8796   1.8844   1.9034
  1.9214   1.9370   1.9484   1.9594   1.9812   1.9879   2.0065   2.0251
  2.0314   2.0362   2.0626   2.0722   2.0842   2.1197   2.1319   2.1547
  2.1638   2.1891   2.2430   2.2628   2.2787   2.2852   2.2979   2.3114
  2.3368   2.3412   2.3784   2.3827   2.4010   2.4192   2.4669   2.4856
  2.5870   2.6054   2.6222   2.6322   2.6764   2.7598   2.7960   2.8648
  2.8749   2.9071   2.9387   2.9814   3.0312   3.1056   3.2094   3.9700
  3.9857   4.0067   4.0838   4.1700   4.2298   4.2376   4.2623   4.2865
  4.2990   4.3207   4.3505   4.4361   4.4870   4.5380   4.7396
 --------------------------------------------------------------
 
          Ground-State Mulliken Net Atomic Charges

     Atom                 Charge (a.u.)
  ----------------------------------------
      1 C                    -2.955736
      2 S                     0.422139
      3 O                    -0.834850
      4 O                    -0.756913
      5 N                    -0.902831
      6 H                     0.406573
      7 S                     0.302377
      8 C                     0.520957
      9 C                     0.018706
     10 C                     0.127385
     11 C                     0.662210
     12 S                     1.451005
     13 O                    -0.587408
     14 O                    -0.648216
     15 H                     0.310539
     16 C                     0.684756
     17 C                     0.035759
     18 O                    -0.598839
     19 H                     0.324826
     20 H                     0.321082
     21 H                     0.347340
     22 H                     0.349141
  ----------------------------------------
  Sum of atomic charges =    -1.000000

         Merz-Kollman ESP Net Atomic Charges

     Atom                 Charge (a.u.)
  ----------------------------------------
      1 C                    -0.228353
      2 S                     1.185078
      3 O                    -0.639702
      4 O                    -0.707934
      5 N                    -1.016309
      6 H                     0.371729
      7 S                     0.149910
      8 C                    -0.091367
      9 C                    -0.105815
     10 C                    -0.107875
     11 C                     0.588161
     12 S                     0.966338
     13 O                    -0.550493
     14 O                    -0.592430
     15 H                     0.224048
     16 C                    -0.211786
     17 C                    -0.421424
     18 O                    -0.547583
     19 H                     0.157754
     20 H                     0.135911
     21 H                     0.201198
     22 H                     0.240945
  ----------------------------------------
  Sum of atomic charges =    -1.000000

  Related Dipole Moment =    11.7480 (X  9.5153 Y  0.3690 Z -6.8803)

 -----------------------------------------------------------------
                    Cartesian Multipole Moments
 -----------------------------------------------------------------
    Charge (ESU x 10^10)
                -4.8032
    Dipole Moment (Debye)
         X       9.5522      Y       0.3473      Z      -6.8857
       Tot      11.7804
    Quadrupole Moments (Debye-Ang)
        XX    -159.2829     XY      13.7043     YY    -123.2809
        XZ      16.5340     YZ     -22.5316     ZZ    -125.1611
    Octopole Moments (Debye-Ang^2)
       XXX     521.1500    XXY    -226.8921    XYY     191.7095
       YYY    -480.7713    XXZ     258.7461    XYZ     -22.5343
       YYZ     175.1470    XZZ     166.9619    YZZ     -62.5507
       ZZZ     559.4235
    Hexadecapole Moments (Debye-Ang^3)
      XXXX   -2894.5004   XXXY     890.4202   XXYY    -963.4344
      XYYY     855.4964   YYYY   -2154.7492   XXXZ    -404.4603
      XXYZ     653.0601   XYYZ    -259.0289   YYYZ    1253.6359
      XXZZ   -1864.4146   XYZZ     411.5451   YYZZ   -1305.2329
      XZZZ    -293.7491   YZZZ     612.8523   ZZZZ   -6176.2955
 -----------------------------------------------------------------
 Total job time:  25.46s(wall), 350.73s(cpu) 
 Fri May 27 13:02:57 2022

        *************************************************************
        *                                                           *
        *  Thank you very much for using Q-Chem.  Have a nice day.  *
        *                                                           *
        *************************************************************


