                  Welcome to Q-Chem
     A Quantum Leap Into The Future Of Chemistry


 Q-Chem 5.4 (devel), Q-Chem, Inc., Pleasanton, CA (2021)

 E. Epifanovsky,  A. T. B. Gilbert,  Xintian Feng,  Joonho Lee,  Yuezhi Mao,  
 N. Mardirossian,  P. Pokhilko,  A. White,  M. Wormit,  M. P. Coons,  
 A. L. Dempwolff,  Zhengting Gan,  D. Hait,  P. R. Horn,  L. D. Jacobson,  
 I. Kaliman,  J. Kussmann,  A. W. Lange,  Ka Un Lao,  D. S. Levine,  Jie Liu,  
 S. C. McKenzie,  A. F. Morrison,  K. Nanda,  F. Plasser,  D. R. Rehn,  
 M. L. Vidal,  Zhi-Qiang You,  Ying Zhu,  B. Alam,  B. Albrecht,  
 A. Aldossary,  E. Alguire,  J. H. Andersen,  D. Barton,  K. Begam,  A. Behn,  
 Y. A. Bernard,  E. J. Berquist,  H. Burton,  A. Carreras,  K. Carter-Fenk,  
 R. Chakraborty,  A. D. Chien,  K. D. Closser,  V. Cofer-Shabica,  
 S. Dasgupta,  Jia Deng,  M. de Wergifosse,  M. Diedenhofen,  Hainam Do,  
 S. Ehlert,  Po-Tung Fang,  S. Fatehi,  Qingguo Feng,  T. Friedhoff,  
 J. Gayvert,  Qinghui Ge,  G. Gidofalvi,  M. Goldey,  J. Gomes,  
 C. Gonzalez-Espinoza,  S. Gulania,  A. Gunina,  M. W. D. Hanson-Heine,  
 P. H. P. Harbach,  A. W. Hauser,  M. F. Herbst,  M. Hernandez Vera,  
 M. Hodecker,  Z. C. Holden,  S. Houck,  Xunkun Huang,  Kerwin Hui,  
 B. C. Huynh,  M. Ivanov,  Hyunjun Ji,  Hanjie Jiang,  B. Kaduk,  S. Kaehler,  
 K. Khistyaev,  Jaehoon Kim,  P. Klunzinger,  Z. Koczor-Benda,  
 Joong Hoon Koh,  D. Kosenkov,  L. Koulias,  T. Kowalczyk,  C. M. Krauter,  
 K. Kue,  A. Kunitsa,  T. Kus,  A. Landau,  K. V. Lawler,  D. Lefrancois,  
 S. Lehtola,  Rain Li,  Yi-Pei Li,  Jiashu Liang,  M. Liebenthal,  
 Hung-Hsuan Lin,  You-Sheng Lin,  Fenglai Liu,  Kuan-Yu Liu,  
 M. Loipersberger,  A. Luenser,  A. Manjanath,  P. Manohar,  E. Mansoor,  
 S. F. Manzer,  Shan-Ping Mao,  A. V. Marenich,  T. Markovich,  S. Mason,  
 S. A. Maurer,  P. F. McLaughlin,  M. F. S. J. Menger,  J.-M. Mewes,  
 S. A. Mewes,  P. Morgante,  J. W. Mullinax,  K. J. Oosterbaan,  G. Paran,  
 Alexander C. Paul,  Suranjan K. Paul,  F. Pavosevic,  Zheng Pei,  S. Prager,  
 E. I. Proynov,  E. Ramos,  B. Rana,  A. E. Rask,  A. Rettig,  R. M. Richard,  
 F. Rob,  E. Rossomme,  T. Scheele,  M. Scheurer,  M. Schneider,  
 N. Sergueev,  S. M. Sharada,  W. Skomorowski,  D. W. Small,  C. J. Stein,  
 Yu-Chuan Su,  E. J. Sundstrom,  Zhen Tao,  J. Thirman,  T. Tsuchimochi,  
 N. M. Tubman,  S. P. Veccham,  O. Vydrov,  J. Wenzel,  J. Witte,  A. Yamada,  
 Kun Yao,  S. Yeganeh,  S. R. Yost,  A. Zech,  Igor Ying Zhang,  Xing Zhang,  
 Yu Zhang,  D. Zuev,  A. Aspuru-Guzik,  A. T. Bell,  N. A. Besley,  
 K. B. Bravaya,  B. R. Brooks,  D. Casanova,  Jeng-Da Chai,  S. Coriani,  
 C. J. Cramer,  A. E. DePrince, III,  R. A. DiStasio Jr.,  A. Dreuw,  
 B. D. Dunietz,  T. R. Furlani,  W. A. Goddard III,  S. Grimme,  
 S. Hammes-Schiffer,  T. Head-Gordon,  W. J. Hehre,  Chao-Ping Hsu,  
 T.-C. Jagau,  Yousung Jung,  A. Klamt,  Jing Kong,  D. S. Lambrecht,  
 WanZhen Liang,  N. J. Mayhall,  C. W. McCurdy,  J. B. Neaton,  
 C. Ochsenfeld,  J. A. Parkhill,  R. Peverati,  V. A. Rassolov,  Yihan Shao,  
 L. V. Slipchenko,  T. Stauch,  R. P. Steele,  J. E. Subotnik,  
 A. J. W. Thom,  A. Tkatchenko,  D. G. Truhlar,  T. Van Voorhis,  
 T. A. Wesolowski,  K. B. Whaley,  H. L. Woodcock III,  P. M. Zimmerman,  
 S. Faraji,  P. M. W. Gill,  M. Head-Gordon,  J. M. Herbert,  A. I. Krylov

 Additional authors for Version 5.4.1: 
 S. Kotaru,  Shaozhi Li,  Xiangyuan Li,  F. Matz,  A. Molle,  Haisheng Ren,  
 Yingli Su,  Hung-Yi Tsai,  C. Utku,  Fang Wang

 Contributors to earlier versions of Q-Chem not listed above: 
 R. D. Adamson,  B. Austin,  R. Baer,  J. Baker,  G. J. O. Beran,  
 K. Brandhorst,  S. T. Brown,  E. F. C. Byrd,  A. K. Chakraborty,  
 G. K. L. Chan,  Chun-Min Chang,  Yunqing Chen,  C.-L. Cheng,  
 Siu Hung Chien,  D. M. Chipman,  D. L. Crittenden,  H. Dachsel,  
 R. J. Doerksen,  A. D. Dutoi,  R. G. Edgar,  J. Fosso-Tande,  
 L. Fusti-Molnar,  D. Ghosh,  A. Ghysels,  A. Golubeva-Zadorozhnaya,  
 J. Gonthier,  M. S. Gordon,  S. R. Gwaltney,  G. Hawkins,  J. E. Herr,  
 A. Heyden,  S. Hirata,  E. G. Hohenstein,  G. Kedziora,  F. J. Keil,  
 C. Kelley,  Jihan Kim,  R. A. King,  R. Z. Khaliullin,  P. P. Korambath,  
 W. Kurlancheek,  A. Laurent,  A. M. Lee,  M. S. Lee,  S. V. Levchenko,  
 Ching Yeh Lin,  D. Liotard,  E. Livshits,  R. C. Lochan,  I. Lotan,  
 L. A. Martinez-Martinez,  P. E. Maslen,  N. Nair,  D. P. O'Neill,  
 D. Neuhauser,  E. Neuscamman,  C. M. Oana,  R. Olivares-Amaya,  R. Olson,  
 T. M. Perrine,  B. Peters,  P. A. Pieniazek,  A. Prociuk,  Y. M. Rhee,  
 J. Ritchie,  M. A. Rohrdanz,  E. Rosta,  N. J. Russ,  H. F. Schaefer III,  
 M. W. Schmidt,  N. E. Schultz,  S. Sharma,  N. Shenvi,  C. D. Sherrill,  
 A. C. Simmonett,  A. Sodt,  T. Stein,  D. Stuck,  K. S. Thanthiriwatte,  
 V. Vanovschi,  L. Vogt,  Tao Wang,  A. Warshel,  M. A. Watson,  
 C. F. Williams,  Q. Wu,  X. Xu,  Jun Yang,  W. Zhang,  Yan Zhao

 Please cite Q-Chem as follows:
 Y. Shao et al., Mol. Phys. 113, 184-215 (2015)
 DOI: 10.1080/00268976.2014.952696

 Q-Chem 5.4.1 for Intel X86 EM64T Linux

 Parts of Q-Chem use Armadillo 9.800.1 (Horizon Scraper).
 http://arma.sourceforge.net/

 Q-Chem begins on Thu Jun 23 17:46:51 2022  

 Host: gadi-cpu-clx-2441.gadi.nci.org.au
0

     Scratch files written to /jobfs/45213082.gadi-pbs/qchem1335645//
 Processing $rem in /apps/qchem/5.4.1/config/preferences:
 Processing $rem in /home/561/yj5695/.qchemrc:
 Symmetry turned off for PCM/SM12/SMD calculation
 Method-specific promolecule density matrix will be built for SM12 calculation

 Checking the input file for inconsistencies... 	...done.

--------------------------------------------------------------
User input:
--------------------------------------------------------------
$molecule
-1  1
C  1.0953769048  0.5412469492 -0.0626277212
C -1.3160278526  0.5869961372  0.2059824638
S -0.1105072035 -0.669192915  0.3008211107
S  2.8513747544  0.0887471394 -0.1097524149
O  2.8010672913 -1.3845961705  0.0509360937
O  3.2700562364  0.5550503138 -1.4584342937
N  3.582943218  0.7359501955  1.0960053759
H  3.7370336378  1.72607738  0.8885946939
N  0.6879553789  1.748707174 -0.2386706384
C -0.693690467  1.8150607203 -0.0950073679
C -2.7006972741  0.493689253  0.3780131078
C -3.4497827949  1.6548162337  0.2424544527
C -2.8377557121  2.8857770383 -0.0594965629
C -1.4652777862  2.9770064597 -0.2300480128
H -3.1758360549 -0.4542910263  0.6101281984
H -4.5268944012  1.6103481093  0.3715147813
H -3.4514774505  3.7756315496 -0.1602815275
H -0.9827974246  3.921304459 -0.4637647388
$end

$rem
jobtype sp
exchange M062X
basis 6-31+G*
SMX_GAS_PHASE = TRUE
solvent_method sm12
$end

$smx
solvent water
charges mk
$end
--------------------------------------------------------------
 ----------------------------------------------------------------
             Standard Nuclear Orientation (Angstroms)
    I     Atom           X                Y                Z
 ----------------------------------------------------------------
    1      C       1.0953769048     0.5412469492    -0.0626277212
    2      C      -1.3160278526     0.5869961372     0.2059824638
    3      S      -0.1105072035    -0.6691929150     0.3008211107
    4      S       2.8513747544     0.0887471394    -0.1097524149
    5      O       2.8010672913    -1.3845961705     0.0509360937
    6      O       3.2700562364     0.5550503138    -1.4584342937
    7      N       3.5829432180     0.7359501955     1.0960053759
    8      H       3.7370336378     1.7260773800     0.8885946939
    9      N       0.6879553789     1.7487071740    -0.2386706384
   10      C      -0.6936904670     1.8150607203    -0.0950073679
   11      C      -2.7006972741     0.4936892530     0.3780131078
   12      C      -3.4497827949     1.6548162337     0.2424544527
   13      C      -2.8377557121     2.8857770383    -0.0594965629
   14      C      -1.4652777862     2.9770064597    -0.2300480128
   15      H      -3.1758360549    -0.4542910263     0.6101281984
   16      H      -4.5268944012     1.6103481093     0.3715147813
   17      H      -3.4514774505     3.7756315496    -0.1602815275
   18      H      -0.9827974246     3.9213044590    -0.4637647388
 ----------------------------------------------------------------
 Nuclear Repulsion Energy =         991.94552849 hartrees
 There are       55 alpha and       55 beta electrons
 Requested basis set is 6-31+G(d)
 There are 77 shells and 265 basis functions

 Total QAlloc Memory Limit   2000 MB
 Mega-Array Size       188 MB
 MEM_STATIC part       192 MB
 A cutoff of  1.0D-08 yielded   2281 shell pairs
 There are     29076 function pairs
 Smallest overlap matrix eigenvalue = 1.79E-06

 Q-Chem warning in module stvman/mkSTV.C, line 323:

 Overlap eigenvalue is smaller than square root of threshold
 Use THRESH >= 12 to get rid of this warning


 Scale SEOQF with 1.000000e-01/1.000000e-01/1.000000e-01

 Standard Electronic Orientation quadrupole field applied
 Nucleus-field energy     =     0.0000000355 hartrees
 ================ Generating on-the-fly Promolecule Density  ================
Attempting to make child job directory: /jobfs/45213082.gadi-pbs/qchem1335645//Frg1/
Attempting to make child job directory: /jobfs/45213082.gadi-pbs/qchem1335645//Frg2/
Attempting to make child job directory: /jobfs/45213082.gadi-pbs/qchem1335645//Frg3/
Attempting to make child job directory: /jobfs/45213082.gadi-pbs/qchem1335645//Frg4/
Attempting to make child job directory: /jobfs/45213082.gadi-pbs/qchem1335645//Frg5/
Creating input file /jobfs/45213082.gadi-pbs/qchem1335645/Frg1.input
using default PutDataFrgm: nothing
calling putenv with: QCSCRATCH=/jobfs/45213082.gadi-pbs/qchem1335645/ 
Spawning Job For Fragment 0
Done Job For Fragment 0
calling putenv with: QCSCRATCH=/jobfs/45213082.gadi-pbs 
calling putenv with: QCTHREADS=16 
Creating input file /jobfs/45213082.gadi-pbs/qchem1335645/Frg2.input
using default PutDataFrgm: nothing
calling putenv with: QCSCRATCH=/jobfs/45213082.gadi-pbs/qchem1335645/ 
Spawning Job For Fragment 1
Done Job For Fragment 1
calling putenv with: QCSCRATCH=/jobfs/45213082.gadi-pbs 
calling putenv with: QCTHREADS=16 
Creating input file /jobfs/45213082.gadi-pbs/qchem1335645/Frg3.input
using default PutDataFrgm: nothing
calling putenv with: QCSCRATCH=/jobfs/45213082.gadi-pbs/qchem1335645/ 
Spawning Job For Fragment 2
Done Job For Fragment 2
calling putenv with: QCSCRATCH=/jobfs/45213082.gadi-pbs 
calling putenv with: QCTHREADS=16 
Creating input file /jobfs/45213082.gadi-pbs/qchem1335645/Frg4.input
using default PutDataFrgm: nothing
calling putenv with: QCSCRATCH=/jobfs/45213082.gadi-pbs/qchem1335645/ 
Spawning Job For Fragment 3
Done Job For Fragment 3
calling putenv with: QCSCRATCH=/jobfs/45213082.gadi-pbs 
calling putenv with: QCTHREADS=16 
Creating input file /jobfs/45213082.gadi-pbs/qchem1335645/Frg5.input
using default PutDataFrgm: nothing
calling putenv with: QCSCRATCH=/jobfs/45213082.gadi-pbs/qchem1335645/ 
Spawning Job For Fragment 4
Done Job For Fragment 4
calling putenv with: QCSCRATCH=/jobfs/45213082.gadi-pbs 
calling putenv with: QCTHREADS=16 
 Time for running child jobs:  CPU 2.23 s  wall 2.42 s
 ============= Method Specific Promolecule Density Constructed =============
 Guess from superposition of atomic densities
 Warning:  Energy on first SCF cycle will be non-variational
 SAD guess density has 109.000000 electrons

 -----------------------------------------------------------------------
  General SCF calculation program by
  Eric Jon Sundstrom, Paul Horn, Yuezhi Mao, Dmitri Zuev, Alec White,
  David Stuck, Shaama M.S., Shane Yost, Joonho Lee, David Small,
  Daniel Levine, Susi Lehtola, Hugh Burton, Evgeny Epifanovsky,
  Bang C. Huynh
 -----------------------------------------------------------------------
 Exchange:     0.5400 Hartree-Fock + 1.0000 M06-2X
 Correlation:  1.0000 M06-2X
 Using SG-3 standard quadrature grid
 using 16 threads for integral computing
 -------------------------------------------------------
 OpenMP Integral computing Module                
 Release: version 1.0, May 2013, Q-Chem Inc. Pittsburgh 
 -------------------------------------------------------
 A restricted SCF calculation will be
 performed using DIIS
 SCF converges when DIIS error is below 1.0e-05
 ---------------------------------------
  Cycle       Energy         DIIS error
 ---------------------------------------
    1   -1329.9067945035      4.69e-02  
    2   -1325.5072482097      6.15e-03  
    3   -1325.2885557528      8.57e-03  
    4   -1325.7906816141      9.24e-04  
    5   -1325.7969935296      4.38e-04  
    6   -1325.7985659088      9.45e-05  
    7   -1325.7986365671      3.67e-05  
    8   -1325.7986467006      1.37e-05  
    9   -1325.7986486715      3.85e-06  Convergence criterion met
 ---------------------------------------
 SCF time:   CPU 117.65s  wall 7.00s 
 SCF   energy in the final basis set =    -1325.7986486715
 Total energy in the final basis set =    -1325.7986486715
 Exchange:     0.5400 Hartree-Fock + 1.0000 M06-2X
 Correlation:  1.0000 M06-2X
 Using SG-3 standard quadrature grid
 
 SM12 calculation using Merz-Singh-Kollman charges
 Citation of the SM12 model:
 Marenich, A.V.; Cramer, C.J.; Truhlar, D.G.
 J. Chem. Theory Comput. 2013, 9, 609-612.
 iSolventCode=           1
 Solvent: water                                                           
 
  Building new vdw surfaces
         Merz-Kollman ESP Net Atomic Charges

     Atom                 Charge (a.u.)
  ----------------------------------------
      1 C                     0.157805
      2 C                    -0.102728
      3 S                    -0.044087
      4 S                     1.106726
      5 O                    -0.605627
      6 O                    -0.650793
      7 N                    -0.966251
      8 H                     0.369532
      9 N                    -0.627885
     10 C                     0.724535
     11 C                    -0.182067
     12 C                    -0.330424
     13 C                    -0.033279
     14 C                    -0.510502
     15 H                     0.190285
     16 H                     0.167308
     17 H                     0.124102
     18 H                     0.213351
  ----------------------------------------
  Sum of atomic charges =    -1.000000

  Related Dipole Moment =    13.9305 (X -13.9158 Y  0.0464 Z  0.6378)


 Charges (in A.U.) from Merz-Kollman fitting 
 -----------------------------------------------
 Center     Atomic                  MZ       
 Number     Number                  Charge
 -----------------------------------------------
    1          6                    0.157805
    2          6                   -0.102728
    3         16                   -0.044087
    4         16                    1.106726
    5          8                   -0.605627
    6          8                   -0.650793
    7          7                   -0.966251
    8          1                    0.369532
    9          7                   -0.627885
   10          6                    0.724535
   11          6                   -0.182067
   12          6                   -0.330424
   13          6                   -0.033279
   14          6                   -0.510502
   15          1                    0.190285
   16          1                    0.167308
   17          1                    0.124102
   18          1                    0.213351
 -----------------------------------------------
 A restricted SCF calculation will be
 performed using Roothaan-Hall, DIIS
 SCF converges when DIIS error is below 1.0e-05
 ---------------------------------------
  Cycle       Energy         DIIS error
 ---------------------------------------
         Merz-Kollman ESP Net Atomic Charges

     Atom                 Charge (a.u.)
  ----------------------------------------
      1 C                     0.093412
      2 C                    -0.059712
      3 S                    -0.018048
      4 S                     1.120174
      5 O                    -0.637042
      6 O                    -0.688806
      7 N                    -1.009839
      8 H                     0.393852
      9 N                    -0.621096
     10 C                     0.677159
     11 C                    -0.191989
     12 C                    -0.308171
     13 C                    -0.019478
     14 C                    -0.511017
     15 H                     0.218959
     16 H                     0.187599
     17 H                     0.144992
     18 H                     0.229053
  ----------------------------------------
  Sum of atomic charges =    -1.000000

  Related Dipole Moment =    17.2788 (X -17.2328 Y  0.8276 Z  0.9508)


 Charges (in A.U.) from Merz-Kollman fitting 
 -----------------------------------------------
 Center     Atomic                  MZ       
 Number     Number                  Charge
 -----------------------------------------------
    1          6                    0.093412
    2          6                   -0.059712
    3         16                   -0.018048
    4         16                    1.120174
    5          8                   -0.637042
    6          8                   -0.688806
    7          7                   -1.009839
    8          1                    0.393852
    9          7                   -0.621096
   10          6                    0.677159
   11          6                   -0.191989
   12          6                   -0.308171
   13          6                   -0.019478
   14          6                   -0.511017
   15          1                    0.218959
   16          1                    0.187599
   17          1                    0.144992
   18          1                    0.229053
 -----------------------------------------------
    1   -1325.7986496571      5.48e-04  Roothaan Step
 ---------------------------------------
  Cycle       Energy         DIIS error
 ---------------------------------------
         Merz-Kollman ESP Net Atomic Charges

     Atom                 Charge (a.u.)
  ----------------------------------------
      1 C                     0.184987
      2 C                    -0.098879
      3 S                    -0.053545
      4 S                     1.151029
      5 O                    -0.651280
      6 O                    -0.706514
      7 N                    -1.034152
      8 H                     0.388832
      9 N                    -0.637091
     10 C                     0.696140
     11 C                    -0.197950
     12 C                    -0.317214
     13 C                    -0.036975
     14 C                    -0.501402
     15 H                     0.226613
     16 H                     0.198826
     17 H                     0.156690
     18 H                     0.231885
  ----------------------------------------
  Sum of atomic charges =    -1.000000

  Related Dipole Moment =    17.3848 (X -17.3265 Y  1.1782 Z  0.7979)


 Charges (in A.U.) from Merz-Kollman fitting 
 -----------------------------------------------
 Center     Atomic                  MZ       
 Number     Number                  Charge
 -----------------------------------------------
    1          6                    0.184987
    2          6                   -0.098879
    3         16                   -0.053545
    4         16                    1.151029
    5          8                   -0.651280
    6          8                   -0.706514
    7          7                   -1.034152
    8          1                    0.388832
    9          7                   -0.637091
   10          6                    0.696140
   11          6                   -0.197950
   12          6                   -0.317214
   13          6                   -0.036975
   14          6                   -0.501402
   15          1                    0.226613
   16          1                    0.198826
   17          1                    0.156690
   18          1                    0.231885
 -----------------------------------------------
    1   -1325.7897845552      3.23e-04  
         Merz-Kollman ESP Net Atomic Charges

     Atom                 Charge (a.u.)
  ----------------------------------------
      1 C                     0.120706
      2 C                    -0.069204
      3 S                    -0.031151
      4 S                     1.155474
      5 O                    -0.651334
      6 O                    -0.708275
      7 N                    -1.032272
      8 H                     0.391335
      9 N                    -0.624834
     10 C                     0.678605
     11 C                    -0.196986
     12 C                    -0.308713
     13 C                    -0.026829
     14 C                    -0.506762
     15 H                     0.226412
     16 H                     0.196685
     17 H                     0.154335
     18 H                     0.232807
  ----------------------------------------
  Sum of atomic charges =    -1.000000

  Related Dipole Moment =    17.8817 (X -17.8251 Y  1.0902 Z  0.9135)


 Charges (in A.U.) from Merz-Kollman fitting 
 -----------------------------------------------
 Center     Atomic                  MZ       
 Number     Number                  Charge
 -----------------------------------------------
    1          6                    0.120706
    2          6                   -0.069204
    3         16                   -0.031151
    4         16                    1.155474
    5          8                   -0.651334
    6          8                   -0.708275
    7          7                   -1.032272
    8          1                    0.391335
    9          7                   -0.624834
   10          6                    0.678605
   11          6                   -0.196986
   12          6                   -0.308713
   13          6                   -0.026829
   14          6                   -0.506762
   15          1                    0.226412
   16          1                    0.196685
   17          1                    0.154335
   18          1                    0.232807
 -----------------------------------------------
    2   -1325.7889419117      2.97e-04  
         Merz-Kollman ESP Net Atomic Charges

     Atom                 Charge (a.u.)
  ----------------------------------------
      1 C                     0.133917
      2 C                    -0.075748
      3 S                    -0.034729
      4 S                     1.156712
      5 O                    -0.654201
      6 O                    -0.710407
      7 N                    -1.039107
      8 H                     0.392583
      9 N                    -0.625649
     10 C                     0.679053
     11 C                    -0.198879
     12 C                    -0.308067
     13 C                    -0.027620
     14 C                    -0.504055
     15 H                     0.228210
     16 H                     0.198677
     17 H                     0.156098
     18 H                     0.233213
  ----------------------------------------
  Sum of atomic charges =    -1.000000

  Related Dipole Moment =    18.0244 (X -17.9631 Y  1.1942 Z  0.8826)


 Charges (in A.U.) from Merz-Kollman fitting 
 -----------------------------------------------
 Center     Atomic                  MZ       
 Number     Number                  Charge
 -----------------------------------------------
    1          6                    0.133917
    2          6                   -0.075748
    3         16                   -0.034729
    4         16                    1.156712
    5          8                   -0.654201
    6          8                   -0.710407
    7          7                   -1.039107
    8          1                    0.392583
    9          7                   -0.625649
   10          6                    0.679053
   11          6                   -0.198879
   12          6                   -0.308067
   13          6                   -0.027620
   14          6                   -0.504055
   15          1                    0.228210
   16          1                    0.198677
   17          1                    0.156098
   18          1                    0.233213
 -----------------------------------------------
    3   -1325.7874485662      6.20e-05  
         Merz-Kollman ESP Net Atomic Charges

     Atom                 Charge (a.u.)
  ----------------------------------------
      1 C                     0.128725
      2 C                    -0.072703
      3 S                    -0.034193
      4 S                     1.159423
      5 O                    -0.654260
      6 O                    -0.711898
      7 N                    -1.038913
      8 H                     0.391733
      9 N                    -0.624278
     10 C                     0.677723
     11 C                    -0.198936
     12 C                    -0.307798
     13 C                    -0.028129
     14 C                    -0.504357
     15 H                     0.228463
     16 H                     0.199167
     17 H                     0.156653
     18 H                     0.233578
  ----------------------------------------
  Sum of atomic charges =    -1.000000

  Related Dipole Moment =    18.0814 (X -18.0201 Y  1.1895 Z  0.8945)


 Charges (in A.U.) from Merz-Kollman fitting 
 -----------------------------------------------
 Center     Atomic                  MZ       
 Number     Number                  Charge
 -----------------------------------------------
    1          6                    0.128725
    2          6                   -0.072703
    3         16                   -0.034193
    4         16                    1.159423
    5          8                   -0.654260
    6          8                   -0.711898
    7          7                   -1.038913
    8          1                    0.391733
    9          7                   -0.624278
   10          6                    0.677723
   11          6                   -0.198936
   12          6                   -0.307798
   13          6                   -0.028129
   14          6                   -0.504357
   15          1                    0.228463
   16          1                    0.199167
   17          1                    0.156653
   18          1                    0.233578
 -----------------------------------------------
    4   -1325.7866652030      3.70e-05  
    5   -1325.7863888258      6.79e-06  Convergence criterion met
 ---------------------------------------
 SCF time:   CPU 102.52s  wall 6.00s 
(0)  E-EN(g) gas-phase elect-nuc energy                -1325.798648671 a.u.
(1)  E-EN(liq) elect-nuc energy of solute              -1325.786388826 a.u.
(2)  G-P(liq) polarization free energy of solvation           -76.3624 kcal/mol
(3)  G-ENP(liq) elect-nuc-pol free energy of system    -1325.908080048 a.u.
(4)  G-CDS(liq) cavity-dispersion-solvent structure 
     free energy                                                1.0005 kcal/mol
(5)  G-P-CDS(liq) = G-P(liq) + G-CDS(liq) = (2) + (4)         -75.3619 kcal/mol
(6)  G-S(liq) free energy of system = (1) + (5)        -1325.906485618 a.u.
(7)  DeltaE-EN(liq) elect-nuc reorganization
     energy of solute molecule (7) = (1) - (0)                  7.6932 kcal/mol
(8)  DeltaG-ENP(liq) elect-nuc-pol free energy
     of solvation (8) = (3) - (0)                             -68.6692 kcal/mol
(9)  DeltaG-S(liq) free energy of  solvation
     (9) = (6) - (0)                                          -67.6687 kcal/mol
 SCF   energy in the final basis set =    -1325.9064856182
 Total energy in the final basis set =    -1325.9064856182
 
 --------------------------------------------------------------
 
                    Orbital Energies (a.u.)
 --------------------------------------------------------------
 
 Alpha MOs
 -- Occupied --
-90.1508 -89.9788 -19.6369 -19.6363 -14.7965 -14.7409 -10.6509 -10.6103
-10.6094 -10.5825 -10.5763 -10.5758 -10.5736  -8.4634  -8.3263  -6.3858
 -6.3854  -6.3846  -6.2465  -6.2445  -6.2419  -1.2280  -1.1117  -1.1041
 -0.9868  -0.9761  -0.9202  -0.8638  -0.8465  -0.7607  -0.7028  -0.6987
 -0.6567  -0.6032  -0.5832  -0.5762  -0.5705  -0.5366  -0.5246  -0.5215
 -0.5178  -0.4782  -0.4460  -0.4426  -0.4330  -0.4199  -0.4093  -0.3944
 -0.3858  -0.3817  -0.3670  -0.3436  -0.3298  -0.3044  -0.3024
 -- Virtual --
 -0.0325  -0.0252  -0.0182  -0.0060  -0.0015   0.0003   0.0036   0.0078
  0.0136   0.0296   0.0308   0.0335   0.0462   0.0507   0.0596   0.0619
  0.0760   0.0781   0.0811   0.0880   0.0953   0.0976   0.1064   0.1117
  0.1169   0.1228   0.1275   0.1351   0.1375   0.1474   0.1521   0.1583
  0.1664   0.1673   0.1707   0.1764   0.1821   0.1904   0.1954   0.1975
  0.2032   0.2135   0.2141   0.2220   0.2251   0.2319   0.2337   0.2347
  0.2447   0.2482   0.2526   0.2628   0.2706   0.2746   0.2810   0.2880
  0.2918   0.2945   0.3037   0.3102   0.3134   0.3251   0.3347   0.3356
  0.3476   0.3551   0.3727   0.3881   0.4032   0.4172   0.4219   0.4529
  0.4646   0.5199   0.5263   0.5800   0.6033   0.6086   0.6160   0.6475
  0.6646   0.6745   0.6850   0.7008   0.7072   0.7160   0.7220   0.7311
  0.7498   0.7570   0.7574   0.7722   0.7788   0.7840   0.8067   0.8285
  0.8343   0.8903   0.9368   0.9389   0.9520   0.9560   0.9663   0.9791
  0.9937   0.9991   1.0234   1.0430   1.0477   1.0624   1.0685   1.0852
  1.0900   1.1050   1.1207   1.1317   1.1410   1.1587   1.1675   1.1786
  1.1931   1.2071   1.2284   1.2319   1.2649   1.2734   1.2920   1.3075
  1.3244   1.3582   1.3649   1.3789   1.3813   1.3950   1.4126   1.4262
  1.4406   1.4574   1.4773   1.4805   1.5109   1.5262   1.5269   1.5718
  1.6011   1.6456   1.7081   1.7501   1.7679   1.7902   1.8096   1.8195
  1.8508   1.8695   1.8747   1.8897   1.9019   1.9304   1.9405   1.9856
  2.0031   2.0147   2.0311   2.0335   2.0663   2.1118   2.1507   2.1619
  2.1633   2.1802   2.2069   2.2499   2.2613   2.2697   2.2773   2.3105
  2.3263   2.3938   2.4058   2.4493   2.4768   2.5141   2.5410   2.6160
  2.6367   2.6568   2.6832   2.7391   2.7539   2.8004   2.8621   2.8785
  2.9019   2.9601   3.0197   3.1667   3.3889   3.9723   3.9990   4.0745
  4.1575   4.2427   4.2634   4.2926   4.3122   4.3398   4.3729   4.4460
  4.5111   4.7316
 --------------------------------------------------------------
 
          Ground-State Mulliken Net Atomic Charges

     Atom                 Charge (a.u.)
  ----------------------------------------
      1 C                    -2.526896
      2 C                    -0.885679
      3 S                     0.882590
      4 S                     0.287898
      5 O                    -0.814707
      6 O                    -0.751151
      7 N                    -0.970174
      8 H                     0.409059
      9 N                    -0.243272
     10 C                    -1.683915
     11 C                     1.754393
     12 C                     0.996863
     13 C                     0.764390
     14 C                     0.653482
     15 H                     0.294877
     16 H                     0.279022
     17 H                     0.280996
     18 H                     0.272224
  ----------------------------------------
  Sum of atomic charges =    -1.000000

         Merz-Kollman ESP Net Atomic Charges

     Atom                 Charge (a.u.)
  ----------------------------------------
      1 C                     0.128861
      2 C                    -0.072773
      3 S                    -0.034167
      4 S                     1.161732
      5 O                    -0.655001
      6 O                    -0.712454
      7 N                    -1.039980
      8 H                     0.391707
      9 N                    -0.624289
     10 C                     0.677411
     11 C                    -0.199063
     12 C                    -0.307490
     13 C                    -0.028073
     14 C                    -0.504288
     15 H                     0.228450
     16 H                     0.199169
     17 H                     0.156662
     18 H                     0.233585
  ----------------------------------------
  Sum of atomic charges =    -1.000000

  Related Dipole Moment =    18.0899 (X -18.0286 Y  1.1915 Z  0.8913)

 -----------------------------------------------------------------
                    Cartesian Multipole Moments
 -----------------------------------------------------------------
    Charge (ESU x 10^10)
                -4.8032
    Dipole Moment (Debye)
         X     -18.0526      Y       1.1926      Z       0.8621
       Tot      18.1125
    Quadrupole Moments (Debye-Ang)
        XX    -137.7128     XY       1.1305     YY     -92.7969
        XZ       0.1015     YZ       0.8463     ZZ    -105.8331
    Octopole Moments (Debye-Ang^2)
       XXX    -329.8854    XXY     -44.7883    XYY     -63.5389
       YYY    -169.2454    XXZ       3.1540    XYZ       9.3894
       YYZ      -3.5409    XZZ     -64.4127    YZZ     -80.2758
       ZZZ      -7.9753
    Hexadecapole Moments (Debye-Ang^3)
      XXXX   -3715.8948   XXXY     293.7061   XXYY    -713.7078
      XYYY     288.5412   YYYY   -1147.6401   XXXZ       5.2406
      XXYZ      26.1862   XYYZ      36.7958   YYYZ       6.8847
      XXZZ    -737.8514   XYZZ     104.2411   YYZZ    -276.3567
      XZZZ      52.1801   YZZZ      24.7179   ZZZZ    -303.1100
 -----------------------------------------------------------------
 Total job time:  17.02s(wall), 229.82s(cpu) 
 Thu Jun 23 17:47:08 2022

        *************************************************************
        *                                                           *
        *  Thank you very much for using Q-Chem.  Have a nice day.  *
        *                                                           *
        *************************************************************


