                  Welcome to Q-Chem
     A Quantum Leap Into The Future Of Chemistry


 Q-Chem 5.4 (devel), Q-Chem, Inc., Pleasanton, CA (2021)

 E. Epifanovsky,  A. T. B. Gilbert,  Xintian Feng,  Joonho Lee,  Yuezhi Mao,  
 N. Mardirossian,  P. Pokhilko,  A. White,  M. Wormit,  M. P. Coons,  
 A. L. Dempwolff,  Zhengting Gan,  D. Hait,  P. R. Horn,  L. D. Jacobson,  
 I. Kaliman,  J. Kussmann,  A. W. Lange,  Ka Un Lao,  D. S. Levine,  Jie Liu,  
 S. C. McKenzie,  A. F. Morrison,  K. Nanda,  F. Plasser,  D. R. Rehn,  
 M. L. Vidal,  Zhi-Qiang You,  Ying Zhu,  B. Alam,  B. Albrecht,  
 A. Aldossary,  E. Alguire,  J. H. Andersen,  D. Barton,  K. Begam,  A. Behn,  
 Y. A. Bernard,  E. J. Berquist,  H. Burton,  A. Carreras,  K. Carter-Fenk,  
 R. Chakraborty,  A. D. Chien,  K. D. Closser,  V. Cofer-Shabica,  
 S. Dasgupta,  Jia Deng,  M. de Wergifosse,  M. Diedenhofen,  Hainam Do,  
 S. Ehlert,  Po-Tung Fang,  S. Fatehi,  Qingguo Feng,  T. Friedhoff,  
 J. Gayvert,  Qinghui Ge,  G. Gidofalvi,  M. Goldey,  J. Gomes,  
 C. Gonzalez-Espinoza,  S. Gulania,  A. Gunina,  M. W. D. Hanson-Heine,  
 P. H. P. Harbach,  A. W. Hauser,  M. F. Herbst,  M. Hernandez Vera,  
 M. Hodecker,  Z. C. Holden,  S. Houck,  Xunkun Huang,  Kerwin Hui,  
 B. C. Huynh,  M. Ivanov,  Hyunjun Ji,  Hanjie Jiang,  B. Kaduk,  S. Kaehler,  
 K. Khistyaev,  Jaehoon Kim,  P. Klunzinger,  Z. Koczor-Benda,  
 Joong Hoon Koh,  D. Kosenkov,  L. Koulias,  T. Kowalczyk,  C. M. Krauter,  
 K. Kue,  A. Kunitsa,  T. Kus,  A. Landau,  K. V. Lawler,  D. Lefrancois,  
 S. Lehtola,  Rain Li,  Yi-Pei Li,  Jiashu Liang,  M. Liebenthal,  
 Hung-Hsuan Lin,  You-Sheng Lin,  Fenglai Liu,  Kuan-Yu Liu,  
 M. Loipersberger,  A. Luenser,  A. Manjanath,  P. Manohar,  E. Mansoor,  
 S. F. Manzer,  Shan-Ping Mao,  A. V. Marenich,  T. Markovich,  S. Mason,  
 S. A. Maurer,  P. F. McLaughlin,  M. F. S. J. Menger,  J.-M. Mewes,  
 S. A. Mewes,  P. Morgante,  J. W. Mullinax,  K. J. Oosterbaan,  G. Paran,  
 Alexander C. Paul,  Suranjan K. Paul,  F. Pavosevic,  Zheng Pei,  S. Prager,  
 E. I. Proynov,  E. Ramos,  B. Rana,  A. E. Rask,  A. Rettig,  R. M. Richard,  
 F. Rob,  E. Rossomme,  T. Scheele,  M. Scheurer,  M. Schneider,  
 N. Sergueev,  S. M. Sharada,  W. Skomorowski,  D. W. Small,  C. J. Stein,  
 Yu-Chuan Su,  E. J. Sundstrom,  Zhen Tao,  J. Thirman,  T. Tsuchimochi,  
 N. M. Tubman,  S. P. Veccham,  O. Vydrov,  J. Wenzel,  J. Witte,  A. Yamada,  
 Kun Yao,  S. Yeganeh,  S. R. Yost,  A. Zech,  Igor Ying Zhang,  Xing Zhang,  
 Yu Zhang,  D. Zuev,  A. Aspuru-Guzik,  A. T. Bell,  N. A. Besley,  
 K. B. Bravaya,  B. R. Brooks,  D. Casanova,  Jeng-Da Chai,  S. Coriani,  
 C. J. Cramer,  A. E. DePrince, III,  R. A. DiStasio Jr.,  A. Dreuw,  
 B. D. Dunietz,  T. R. Furlani,  W. A. Goddard III,  S. Grimme,  
 S. Hammes-Schiffer,  T. Head-Gordon,  W. J. Hehre,  Chao-Ping Hsu,  
 T.-C. Jagau,  Yousung Jung,  A. Klamt,  Jing Kong,  D. S. Lambrecht,  
 WanZhen Liang,  N. J. Mayhall,  C. W. McCurdy,  J. B. Neaton,  
 C. Ochsenfeld,  J. A. Parkhill,  R. Peverati,  V. A. Rassolov,  Yihan Shao,  
 L. V. Slipchenko,  T. Stauch,  R. P. Steele,  J. E. Subotnik,  
 A. J. W. Thom,  A. Tkatchenko,  D. G. Truhlar,  T. Van Voorhis,  
 T. A. Wesolowski,  K. B. Whaley,  H. L. Woodcock III,  P. M. Zimmerman,  
 S. Faraji,  P. M. W. Gill,  M. Head-Gordon,  J. M. Herbert,  A. I. Krylov

 Additional authors for Version 5.4.1: 
 S. Kotaru,  Shaozhi Li,  Xiangyuan Li,  F. Matz,  A. Molle,  Haisheng Ren,  
 Yingli Su,  Hung-Yi Tsai,  C. Utku,  Fang Wang

 Contributors to earlier versions of Q-Chem not listed above: 
 R. D. Adamson,  B. Austin,  R. Baer,  J. Baker,  G. J. O. Beran,  
 K. Brandhorst,  S. T. Brown,  E. F. C. Byrd,  A. K. Chakraborty,  
 G. K. L. Chan,  Chun-Min Chang,  Yunqing Chen,  C.-L. Cheng,  
 Siu Hung Chien,  D. M. Chipman,  D. L. Crittenden,  H. Dachsel,  
 R. J. Doerksen,  A. D. Dutoi,  R. G. Edgar,  J. Fosso-Tande,  
 L. Fusti-Molnar,  D. Ghosh,  A. Ghysels,  A. Golubeva-Zadorozhnaya,  
 J. Gonthier,  M. S. Gordon,  S. R. Gwaltney,  G. Hawkins,  J. E. Herr,  
 A. Heyden,  S. Hirata,  E. G. Hohenstein,  G. Kedziora,  F. J. Keil,  
 C. Kelley,  Jihan Kim,  R. A. King,  R. Z. Khaliullin,  P. P. Korambath,  
 W. Kurlancheek,  A. Laurent,  A. M. Lee,  M. S. Lee,  S. V. Levchenko,  
 Ching Yeh Lin,  D. Liotard,  E. Livshits,  R. C. Lochan,  I. Lotan,  
 L. A. Martinez-Martinez,  P. E. Maslen,  N. Nair,  D. P. O'Neill,  
 D. Neuhauser,  E. Neuscamman,  C. M. Oana,  R. Olivares-Amaya,  R. Olson,  
 T. M. Perrine,  B. Peters,  P. A. Pieniazek,  A. Prociuk,  Y. M. Rhee,  
 J. Ritchie,  M. A. Rohrdanz,  E. Rosta,  N. J. Russ,  H. F. Schaefer III,  
 M. W. Schmidt,  N. E. Schultz,  S. Sharma,  N. Shenvi,  C. D. Sherrill,  
 A. C. Simmonett,  A. Sodt,  T. Stein,  D. Stuck,  K. S. Thanthiriwatte,  
 V. Vanovschi,  L. Vogt,  Tao Wang,  A. Warshel,  M. A. Watson,  
 C. F. Williams,  Q. Wu,  X. Xu,  Jun Yang,  W. Zhang,  Yan Zhao

 Please cite Q-Chem as follows:
 Y. Shao et al., Mol. Phys. 113, 184-215 (2015)
 DOI: 10.1080/00268976.2014.952696

 Q-Chem 5.4.1 for Intel X86 EM64T Linux

 Parts of Q-Chem use Armadillo 9.800.1 (Horizon Scraper).
 http://arma.sourceforge.net/

 Q-Chem begins on Fri May 20 23:42:13 2022  

 Host: gadi-cpu-clx-1943.gadi.nci.org.au
0

     Scratch files written to /jobfs/40783062.gadi-pbs/qchem1215307//
 Processing $rem in /apps/qchem/5.4.1/config/preferences:
 Processing $rem in /home/561/yj5695/.qchemrc:
 Symmetry turned off for PCM/SM12/SMD calculation
 Method-specific promolecule density matrix will be built for SM12 calculation

 Checking the input file for inconsistencies... 	...done.

--------------------------------------------------------------
User input:
--------------------------------------------------------------
$molecule
-1  1
C  1.0723451019  0.4049903533 -0.0750117128
C -1.2432715694  0.7639793429  0.1301382367
N -2.6096945666  0.7784958071  0.2926253986
S -0.2521771343 -0.651343983  0.289497174
S  2.7765598538 -0.1967264247 -0.2070567966
O  3.4803850446  0.5966510937  0.8340959961
O  2.6047769525 -1.63430015  0.1119992575
N  3.2820027836 -0.0205138731 -1.6607308525
H  3.5401907379  0.9598261737 -1.7996392242
C -3.371501708 -0.3195570667  0.6015825768
O -2.8485892429 -1.4220059252  0.7491265181
C -4.8418701244 -0.0792225458  0.756998925
N  0.7490038552  1.6375166638 -0.2814341605
N -0.5937079577  1.8596257626 -0.1622065828
H -3.0620778383  1.682506456  0.1736538207
H -5.1026837766 -0.2301598093  1.8090496794
H -5.3802205107 -0.8217604466  0.1632373449
H -5.1379309005  0.9253605713  0.4526334017
$end

$rem
jobtype sp
exchange M062X
basis 6-31+G*
xc_grid 1
SMX_GAS_PHASE = TRUE
solvent_method sm12
$end

$smx
solvent water
charges mk
$end
--------------------------------------------------------------
 ----------------------------------------------------------------
             Standard Nuclear Orientation (Angstroms)
    I     Atom           X                Y                Z
 ----------------------------------------------------------------
    1      C       1.0723451019     0.4049903533    -0.0750117128
    2      C      -1.2432715694     0.7639793429     0.1301382367
    3      N      -2.6096945666     0.7784958071     0.2926253986
    4      S      -0.2521771343    -0.6513439830     0.2894971740
    5      S       2.7765598538    -0.1967264247    -0.2070567966
    6      O       3.4803850446     0.5966510937     0.8340959961
    7      O       2.6047769525    -1.6343001500     0.1119992575
    8      N       3.2820027836    -0.0205138731    -1.6607308525
    9      H       3.5401907379     0.9598261737    -1.7996392242
   10      C      -3.3715017080    -0.3195570667     0.6015825768
   11      O      -2.8485892429    -1.4220059252     0.7491265181
   12      C      -4.8418701244    -0.0792225458     0.7569989250
   13      N       0.7490038552     1.6375166638    -0.2814341605
   14      N      -0.5937079577     1.8596257626    -0.1622065828
   15      H      -3.0620778383     1.6825064560     0.1736538207
   16      H      -5.1026837766    -0.2301598093     1.8090496794
   17      H      -5.3802205107    -0.8217604466     0.1632373449
   18      H      -5.1379309005     0.9253605713     0.4526334017
 ----------------------------------------------------------------
 Nuclear Repulsion Energy =        1044.26352688 hartrees
 There are       57 alpha and       57 beta electrons
 Requested basis set is 6-31+G(d)
 There are 77 shells and 265 basis functions

 Total QAlloc Memory Limit   2000 MB
 Mega-Array Size       188 MB
 MEM_STATIC part       192 MB
 A cutoff of  1.0D-08 yielded   2147 shell pairs
 There are     27760 function pairs
 Smallest overlap matrix eigenvalue = 1.10E-05

 Q-Chem warning in module stvman/mkSTV.C, line 323:

 Overlap eigenvalue is smaller than square root of threshold
 Use THRESH >= 12 to get rid of this warning


 Scale SEOQF with 1.000000e-02/1.000000e-01/1.000000e-01

 Standard Electronic Orientation quadrupole field applied
 Nucleus-field energy     =     0.0000000055 hartrees
 ================ Generating on-the-fly Promolecule Density  ================
Attempting to make child job directory: /jobfs/40783062.gadi-pbs/qchem1215307//Frg1/
Attempting to make child job directory: /jobfs/40783062.gadi-pbs/qchem1215307//Frg2/
Attempting to make child job directory: /jobfs/40783062.gadi-pbs/qchem1215307//Frg3/
Attempting to make child job directory: /jobfs/40783062.gadi-pbs/qchem1215307//Frg4/
Attempting to make child job directory: /jobfs/40783062.gadi-pbs/qchem1215307//Frg5/
Creating input file /jobfs/40783062.gadi-pbs/qchem1215307/Frg1.input
using default PutDataFrgm: nothing
calling putenv with: QCSCRATCH=/jobfs/40783062.gadi-pbs/qchem1215307/ 
Spawning Job For Fragment 0
Done Job For Fragment 0
calling putenv with: QCSCRATCH=/jobfs/40783062.gadi-pbs 
calling putenv with: QCTHREADS=16 
Creating input file /jobfs/40783062.gadi-pbs/qchem1215307/Frg2.input
using default PutDataFrgm: nothing
calling putenv with: QCSCRATCH=/jobfs/40783062.gadi-pbs/qchem1215307/ 
Spawning Job For Fragment 1
Done Job For Fragment 1
calling putenv with: QCSCRATCH=/jobfs/40783062.gadi-pbs 
calling putenv with: QCTHREADS=16 
Creating input file /jobfs/40783062.gadi-pbs/qchem1215307/Frg3.input
using default PutDataFrgm: nothing
calling putenv with: QCSCRATCH=/jobfs/40783062.gadi-pbs/qchem1215307/ 
Spawning Job For Fragment 2
Done Job For Fragment 2
calling putenv with: QCSCRATCH=/jobfs/40783062.gadi-pbs 
calling putenv with: QCTHREADS=16 
Creating input file /jobfs/40783062.gadi-pbs/qchem1215307/Frg4.input
using default PutDataFrgm: nothing
calling putenv with: QCSCRATCH=/jobfs/40783062.gadi-pbs/qchem1215307/ 
Spawning Job For Fragment 3
Done Job For Fragment 3
calling putenv with: QCSCRATCH=/jobfs/40783062.gadi-pbs 
calling putenv with: QCTHREADS=16 
Creating input file /jobfs/40783062.gadi-pbs/qchem1215307/Frg5.input
using default PutDataFrgm: nothing
calling putenv with: QCSCRATCH=/jobfs/40783062.gadi-pbs/qchem1215307/ 
Spawning Job For Fragment 4
Done Job For Fragment 4
calling putenv with: QCSCRATCH=/jobfs/40783062.gadi-pbs 
calling putenv with: QCTHREADS=16 
 Time for running child jobs:  CPU 2.52 s  wall 2.44 s
 ============= Method Specific Promolecule Density Constructed =============
 Guess from superposition of atomic densities
 Warning:  Energy on first SCF cycle will be non-variational
 SAD guess density has 113.000000 electrons

 -----------------------------------------------------------------------
  General SCF calculation program by
  Eric Jon Sundstrom, Paul Horn, Yuezhi Mao, Dmitri Zuev, Alec White,
  David Stuck, Shaama M.S., Shane Yost, Joonho Lee, David Small,
  Daniel Levine, Susi Lehtola, Hugh Burton, Evgeny Epifanovsky,
  Bang C. Huynh
 -----------------------------------------------------------------------
 Exchange:     0.5400 Hartree-Fock + 1.0000 M06-2X
 Correlation:  1.0000 M06-2X
 Using SG-1 standard quadrature grid
 using 16 threads for integral computing
 -------------------------------------------------------
 OpenMP Integral computing Module                
 Release: version 1.0, May 2013, Q-Chem Inc. Pittsburgh 
 -------------------------------------------------------
 A restricted SCF calculation will be
 performed using DIIS
 SCF converges when DIIS error is below 1.0e-05
 ---------------------------------------
  Cycle       Energy         DIIS error
 ---------------------------------------
    1   -1399.9673472899      4.72e-02  
    2   -1395.8155740263      6.84e-03  
    3   -1395.5050796389      9.95e-03  
    4   -1396.1703160184      1.02e-03  
    5   -1396.1767160642      5.19e-04  
    6   -1396.1786314969      1.05e-04  
    7   -1396.1787165112      4.53e-05  
    8   -1396.1787325170      1.53e-05  
    9   -1396.1787347223      7.11e-06  Convergence criterion met
 ---------------------------------------
 SCF time:   CPU 63.62s  wall 4.00s 
 SCF   energy in the final basis set =    -1396.1787347223
 Total energy in the final basis set =    -1396.1787347223
 Exchange:     0.5400 Hartree-Fock + 1.0000 M06-2X
 Correlation:  1.0000 M06-2X
 Using SG-1 standard quadrature grid
 
 SM12 calculation using Merz-Singh-Kollman charges
 Citation of the SM12 model:
 Marenich, A.V.; Cramer, C.J.; Truhlar, D.G.
 J. Chem. Theory Comput. 2013, 9, 609-612.
 iSolventCode=           1
 Solvent: water                                                           
 
  Building new vdw surfaces
         Merz-Kollman ESP Net Atomic Charges

     Atom                 Charge (a.u.)
  ----------------------------------------
      1 C                     0.124068
      2 C                     0.631983
      3 N                    -0.793479
      4 S                     0.013680
      5 S                     1.002522
      6 O                    -0.636183
      7 O                    -0.577310
      8 N                    -0.930663
      9 H                     0.352831
     10 C                     0.869474
     11 O                    -0.583072
     12 C                    -0.720285
     13 N                    -0.275482
     14 N                    -0.444303
     15 H                     0.382545
     16 H                     0.197780
     17 H                     0.196923
     18 H                     0.188972
  ----------------------------------------
  Sum of atomic charges =    -1.000000

  Related Dipole Moment =    15.9310 (X -15.6663 Y  2.7524 Z  0.8884)


 Charges (in A.U.) from Merz-Kollman fitting 
 -----------------------------------------------
 Center     Atomic                  MZ       
 Number     Number                  Charge
 -----------------------------------------------
    1          6                    0.124068
    2          6                    0.631983
    3          7                   -0.793479
    4         16                    0.013680
    5         16                    1.002522
    6          8                   -0.636183
    7          8                   -0.577310
    8          7                   -0.930663
    9          1                    0.352831
   10          6                    0.869474
   11          8                   -0.583072
   12          6                   -0.720285
   13          7                   -0.275482
   14          7                   -0.444303
   15          1                    0.382545
   16          1                    0.197780
   17          1                    0.196923
   18          1                    0.188972
 -----------------------------------------------
 A restricted SCF calculation will be
 performed using Roothaan-Hall, DIIS
 SCF converges when DIIS error is below 1.0e-05
 ---------------------------------------
  Cycle       Energy         DIIS error
 ---------------------------------------
         Merz-Kollman ESP Net Atomic Charges

     Atom                 Charge (a.u.)
  ----------------------------------------
      1 C                     0.077516
      2 C                     0.740984
      3 N                    -0.781672
      4 S                     0.021137
      5 S                     1.019328
      6 O                    -0.672756
      7 O                    -0.606459
      8 N                    -0.971952
      9 H                     0.376596
     10 C                     0.906815
     11 O                    -0.643458
     12 C                    -0.722101
     13 N                    -0.304007
     14 N                    -0.485388
     15 H                     0.411681
     16 H                     0.212151
     17 H                     0.208031
     18 H                     0.213553
  ----------------------------------------
  Sum of atomic charges =    -1.000000

  Related Dipole Moment =    19.4328 (X -19.1089 Y  3.3539 Z  1.1112)


 Charges (in A.U.) from Merz-Kollman fitting 
 -----------------------------------------------
 Center     Atomic                  MZ       
 Number     Number                  Charge
 -----------------------------------------------
    1          6                    0.077516
    2          6                    0.740984
    3          7                   -0.781672
    4         16                    0.021137
    5         16                    1.019328
    6          8                   -0.672756
    7          8                   -0.606459
    8          7                   -0.971952
    9          1                    0.376596
   10          6                    0.906815
   11          8                   -0.643458
   12          6                   -0.722101
   13          7                   -0.304007
   14          7                   -0.485388
   15          1                    0.411681
   16          1                    0.212151
   17          1                    0.208031
   18          1                    0.213553
 -----------------------------------------------
    1   -1396.1787348008      6.83e-04  Roothaan Step
 ---------------------------------------
  Cycle       Energy         DIIS error
 ---------------------------------------
         Merz-Kollman ESP Net Atomic Charges

     Atom                 Charge (a.u.)
  ----------------------------------------
      1 C                     0.135097
      2 C                     0.637197
      3 N                    -0.788276
      4 S                     0.018098
      5 S                     1.042748
      6 O                    -0.686096
      7 O                    -0.617463
      8 N                    -0.993031
      9 H                     0.372978
     10 C                     0.829488
     11 O                    -0.571263
     12 C                    -0.742270
     13 N                    -0.280351
     14 N                    -0.456765
     15 H                     0.421033
     16 H                     0.228414
     17 H                     0.225138
     18 H                     0.225325
  ----------------------------------------
  Sum of atomic charges =    -1.000000

  Related Dipole Moment =    19.3850 (X -19.0800 Y  3.1987 Z  1.2257)


 Charges (in A.U.) from Merz-Kollman fitting 
 -----------------------------------------------
 Center     Atomic                  MZ       
 Number     Number                  Charge
 -----------------------------------------------
    1          6                    0.135097
    2          6                    0.637197
    3          7                   -0.788276
    4         16                    0.018098
    5         16                    1.042748
    6          8                   -0.686096
    7          8                   -0.617463
    8          7                   -0.993031
    9          1                    0.372978
   10          6                    0.829488
   11          8                   -0.571263
   12          6                   -0.742270
   13          7                   -0.280351
   14          7                   -0.456765
   15          1                    0.421033
   16          1                    0.228414
   17          1                    0.225138
   18          1                    0.225325
 -----------------------------------------------
    1   -1396.1653303041      4.95e-04  
         Merz-Kollman ESP Net Atomic Charges

     Atom                 Charge (a.u.)
  ----------------------------------------
      1 C                     0.099500
      2 C                     0.707268
      3 N                    -0.780579
      4 S                     0.020241
      5 S                     1.048497
      6 O                    -0.688827
      7 O                    -0.618496
      8 N                    -0.992112
      9 H                     0.374679
     10 C                     0.871696
     11 O                    -0.615133
     12 C                    -0.741943
     13 N                    -0.293077
     14 N                    -0.483299
     15 H                     0.417772
     16 H                     0.226127
     17 H                     0.222449
     18 H                     0.225237
  ----------------------------------------
  Sum of atomic charges =    -1.000000

  Related Dipole Moment =    19.9180 (X -19.6047 Y  3.2953 Z  1.2351)


 Charges (in A.U.) from Merz-Kollman fitting 
 -----------------------------------------------
 Center     Atomic                  MZ       
 Number     Number                  Charge
 -----------------------------------------------
    1          6                    0.099500
    2          6                    0.707268
    3          7                   -0.780579
    4         16                    0.020241
    5         16                    1.048497
    6          8                   -0.688827
    7          8                   -0.618496
    8          7                   -0.992112
    9          1                    0.374679
   10          6                    0.871696
   11          8                   -0.615133
   12          6                   -0.741943
   13          7                   -0.293077
   14          7                   -0.483299
   15          1                    0.417772
   16          1                    0.226127
   17          1                    0.222449
   18          1                    0.225237
 -----------------------------------------------
    2   -1396.1661788990      6.37e-04  
         Merz-Kollman ESP Net Atomic Charges

     Atom                 Charge (a.u.)
  ----------------------------------------
      1 C                     0.093323
      2 C                     0.708031
      3 N                    -0.782709
      4 S                     0.021542
      5 S                     1.050161
      6 O                    -0.690545
      7 O                    -0.620449
      8 N                    -0.996249
      9 H                     0.376169
     10 C                     0.867757
     11 O                    -0.609331
     12 C                    -0.741555
     13 N                    -0.288987
     14 N                    -0.482630
     15 H                     0.418702
     16 H                     0.227183
     17 H                     0.223478
     18 H                     0.226110
  ----------------------------------------
  Sum of atomic charges =    -1.000000

  Related Dipole Moment =    20.0995 (X -19.7862 Y  3.3007 Z  1.2647)


 Charges (in A.U.) from Merz-Kollman fitting 
 -----------------------------------------------
 Center     Atomic                  MZ       
 Number     Number                  Charge
 -----------------------------------------------
    1          6                    0.093323
    2          6                    0.708031
    3          7                   -0.782709
    4         16                    0.021542
    5         16                    1.050161
    6          8                   -0.690545
    7          8                   -0.620449
    8          7                   -0.996249
    9          1                    0.376169
   10          6                    0.867757
   11          8                   -0.609331
   12          6                   -0.741555
   13          7                   -0.288987
   14          7                   -0.482630
   15          1                    0.418702
   16          1                    0.227183
   17          1                    0.223478
   18          1                    0.226110
 -----------------------------------------------
    3   -1396.1649847288      7.38e-05  
         Merz-Kollman ESP Net Atomic Charges

     Atom                 Charge (a.u.)
  ----------------------------------------
      1 C                     0.097255
      2 C                     0.705280
      3 N                    -0.780065
      4 S                     0.021257
      5 S                     1.052197
      6 O                    -0.692088
      7 O                    -0.621051
      8 N                    -0.997997
      9 H                     0.375743
     10 C                     0.866878
     11 O                    -0.609889
     12 C                    -0.743371
     13 N                    -0.288831
     14 N                    -0.484557
     15 H                     0.418845
     16 H                     0.228417
     17 H                     0.224748
     18 H                     0.227227
  ----------------------------------------
  Sum of atomic charges =    -1.000000

  Related Dipole Moment =    20.1582 (X -19.8460 Y  3.2953 Z  1.2784)


 Charges (in A.U.) from Merz-Kollman fitting 
 -----------------------------------------------
 Center     Atomic                  MZ       
 Number     Number                  Charge
 -----------------------------------------------
    1          6                    0.097255
    2          6                    0.705280
    3          7                   -0.780065
    4         16                    0.021257
    5         16                    1.052197
    6          8                   -0.692088
    7          8                   -0.621051
    8          7                   -0.997997
    9          1                    0.375743
   10          6                    0.866878
   11          8                   -0.609889
   12          6                   -0.743371
   13          7                   -0.288831
   14          7                   -0.484557
   15          1                    0.418845
   16          1                    0.228417
   17          1                    0.224748
   18          1                    0.227227
 -----------------------------------------------
    4   -1396.1641292072      4.55e-05  
    5   -1396.1637480112      8.82e-06  Convergence criterion met
 ---------------------------------------
 SCF time:   CPU 65.58s  wall 4.00s 
(0)  E-EN(g) gas-phase elect-nuc energy                -1396.178734722 a.u.
(1)  E-EN(liq) elect-nuc energy of solute              -1396.163748011 a.u.
(2)  G-P(liq) polarization free energy of solvation           -84.8705 kcal/mol
(3)  G-ENP(liq) elect-nuc-pol free energy of system    -1396.298997794 a.u.
(4)  G-CDS(liq) cavity-dispersion-solvent structure 
     free energy                                                2.8191 kcal/mol
(5)  G-P-CDS(liq) = G-P(liq) + G-CDS(liq) = (2) + (4)         -82.0514 kcal/mol
(6)  G-S(liq) free energy of system = (1) + (5)        -1396.294505320 a.u.
(7)  DeltaE-EN(liq) elect-nuc reorganization
     energy of solute molecule (7) = (1) - (0)                  9.4043 kcal/mol
(8)  DeltaG-ENP(liq) elect-nuc-pol free energy
     of solvation (8) = (3) - (0)                             -75.4662 kcal/mol
(9)  DeltaG-S(liq) free energy of  solvation
     (9) = (6) - (0)                                          -72.6471 kcal/mol
 SCF   energy in the final basis set =    -1396.2945053201
 Total energy in the final basis set =    -1396.2945053201
 
 --------------------------------------------------------------
 
                    Orbital Energies (a.u.)
 --------------------------------------------------------------
 
 Alpha MOs
 -- Occupied --
-90.1580 -89.9957 -19.6486 -19.6382 -19.6374 -14.8412 -14.8233 -14.8175
-14.7422 -10.6916 -10.6848 -10.6429 -10.5628  -8.4654  -8.3383  -6.3876
 -6.3872  -6.3864  -6.2575  -6.2559  -6.2538  -1.2305  -1.2021  -1.1750
 -1.1132  -1.0850  -0.9888  -0.9483  -0.9281  -0.8567  -0.7715  -0.7319
 -0.6929  -0.6686  -0.6290  -0.5838  -0.5780  -0.5680  -0.5597  -0.5377
 -0.5317  -0.5193  -0.5084  -0.4778  -0.4647  -0.4411  -0.4239  -0.4206
 -0.4084  -0.3916  -0.3789  -0.3721  -0.3679  -0.3592  -0.3462  -0.3352
 -0.3090
 -- Virtual --
 -0.0285  -0.0255  -0.0184  -0.0027   0.0013   0.0101   0.0171   0.0285
  0.0390   0.0433   0.0495   0.0565   0.0594   0.0630   0.0704   0.0734
  0.0797   0.0817   0.0856   0.0901   0.0977   0.1110   0.1143   0.1166
  0.1296   0.1318   0.1382   0.1432   0.1554   0.1649   0.1671   0.1756
  0.1794   0.1834   0.1903   0.1987   0.2095   0.2123   0.2177   0.2226
  0.2268   0.2342   0.2385   0.2449   0.2498   0.2587   0.2608   0.2656
  0.2723   0.2798   0.2861   0.2906   0.2942   0.2990   0.3018   0.3121
  0.3139   0.3182   0.3259   0.3322   0.3460   0.3613   0.3729   0.3825
  0.3901   0.3967   0.4121   0.4166   0.4231   0.4281   0.4686   0.5055
  0.5202   0.5214   0.5641   0.5928   0.6059   0.6303   0.6393   0.6598
  0.6705   0.6838   0.7027   0.7170   0.7251   0.7419   0.7534   0.7683
  0.7835   0.7862   0.8465   0.8625   0.8912   0.9034   0.9245   0.9501
  0.9699   0.9928   1.0015   1.0097   1.0206   1.0263   1.0329   1.0472
  1.0604   1.0646   1.0733   1.0767   1.1035   1.1120   1.1167   1.1357
  1.1448   1.1703   1.1788   1.1862   1.1933   1.2064   1.2476   1.2724
  1.2894   1.3000   1.3064   1.3258   1.3407   1.3561   1.3667   1.3773
  1.3830   1.3920   1.3964   1.4157   1.4309   1.4402   1.4612   1.4748
  1.5142   1.5159   1.5274   1.5763   1.5861   1.6474   1.6715   1.7352
  1.7478   1.7698   1.7838   1.7930   1.8094   1.8156   1.8367   1.8570
  1.8669   1.8727   1.8956   1.9097   1.9397   1.9476   1.9644   1.9981
  2.0137   2.0273   2.0646   2.1018   2.1230   2.1546   2.1633   2.2099
  2.2574   2.2851   2.3098   2.3157   2.3318   2.3603   2.3692   2.3843
  2.4016   2.4113   2.4501   2.4691   2.4927   2.5726   2.5886   2.6179
  2.6950   2.7858   2.8016   2.8403   2.8705   2.9253   2.9499   3.0652
  3.1017   3.1764   3.2631   3.9633   3.9885   4.0464   4.0830   4.1558
  4.2260   4.2450   4.3141   4.3241   4.3593   4.4243   4.4592   4.6226
 --------------------------------------------------------------
 
          Ground-State Mulliken Net Atomic Charges

     Atom                 Charge (a.u.)
  ----------------------------------------
      1 C                    -1.624913
      2 C                     0.576575
      3 N                    -0.095866
      4 S                     1.304509
      5 S                     0.279295
      6 O                    -0.736721
      7 O                    -0.810351
      8 N                    -0.983440
      9 H                     0.408012
     10 C                     0.715070
     11 O                    -0.740308
     12 C                     0.026136
     13 N                    -0.468932
     14 N                    -0.221670
     15 H                     0.535446
     16 H                     0.286597
     17 H                     0.277520
     18 H                     0.273042
  ----------------------------------------
  Sum of atomic charges =    -1.000000

         Merz-Kollman ESP Net Atomic Charges

     Atom                 Charge (a.u.)
  ----------------------------------------
      1 C                     0.095185
      2 C                     0.706893
      3 N                    -0.780330
      4 S                     0.021076
      5 S                     1.054075
      6 O                    -0.692554
      7 O                    -0.621533
      8 N                    -0.998483
      9 H                     0.375597
     10 C                     0.866221
     11 O                    -0.609279
     12 C                    -0.744049
     13 N                    -0.288059
     14 N                    -0.484804
     15 H                     0.418813
     16 H                     0.228702
     17 H                     0.225046
     18 H                     0.227480
  ----------------------------------------
  Sum of atomic charges =    -1.000000

  Related Dipole Moment =    20.1730 (X -19.8605 Y  3.2971 Z  1.2808)

 -----------------------------------------------------------------
                    Cartesian Multipole Moments
 -----------------------------------------------------------------
    Charge (ESU x 10^10)
                -4.8032
    Dipole Moment (Debye)
         X     -19.8940      Y       3.2728      Z       1.3243
       Tot      20.2049
    Quadrupole Moments (Debye-Ang)
        XX    -116.4656     XY      -2.9977     YY    -110.1906
        XZ      -0.3083     YZ      -0.3343     ZZ    -100.8185
    Octopole Moments (Debye-Ang^2)
       XXX    -327.0526    XXY      49.9629    XYY     -25.3066
       YYY     -13.8504    XXZ       8.7933    XYZ     -21.9626
       YYZ     -11.1231    XZZ     -41.3481    YZZ       0.3976
       ZZZ      -5.4046
    Hexadecapole Moments (Debye-Ang^3)
      XXXX   -3881.6643   XXXY     -21.0475   XXYY    -806.0111
      XYYY      -3.9341   YYYY    -688.7616   XXXZ     182.1053
      XXYZ     -27.2892   XYYZ      84.6853   YYYZ      44.6791
      XXZZ    -783.3943   XYZZ      20.1136   YYZZ    -161.5049
      XZZZ     282.2628   YZZZ      19.5248   ZZZZ    -362.7673
 -----------------------------------------------------------------
 Total job time:  11.17s(wall), 138.03s(cpu) 
 Fri May 20 23:42:24 2022

        *************************************************************
        *                                                           *
        *  Thank you very much for using Q-Chem.  Have a nice day.  *
        *                                                           *
        *************************************************************


