                  Welcome to Q-Chem
     A Quantum Leap Into The Future Of Chemistry


 Q-Chem 5.4 (devel), Q-Chem, Inc., Pleasanton, CA (2021)

 E. Epifanovsky,  A. T. B. Gilbert,  Xintian Feng,  Joonho Lee,  Yuezhi Mao,  
 N. Mardirossian,  P. Pokhilko,  A. White,  M. Wormit,  M. P. Coons,  
 A. L. Dempwolff,  Zhengting Gan,  D. Hait,  P. R. Horn,  L. D. Jacobson,  
 I. Kaliman,  J. Kussmann,  A. W. Lange,  Ka Un Lao,  D. S. Levine,  Jie Liu,  
 S. C. McKenzie,  A. F. Morrison,  K. Nanda,  F. Plasser,  D. R. Rehn,  
 M. L. Vidal,  Zhi-Qiang You,  Ying Zhu,  B. Alam,  B. Albrecht,  
 A. Aldossary,  E. Alguire,  J. H. Andersen,  D. Barton,  K. Begam,  A. Behn,  
 Y. A. Bernard,  E. J. Berquist,  H. Burton,  A. Carreras,  K. Carter-Fenk,  
 R. Chakraborty,  A. D. Chien,  K. D. Closser,  V. Cofer-Shabica,  
 S. Dasgupta,  Jia Deng,  M. de Wergifosse,  M. Diedenhofen,  Hainam Do,  
 S. Ehlert,  Po-Tung Fang,  S. Fatehi,  Qingguo Feng,  T. Friedhoff,  
 J. Gayvert,  Qinghui Ge,  G. Gidofalvi,  M. Goldey,  J. Gomes,  
 C. Gonzalez-Espinoza,  S. Gulania,  A. Gunina,  M. W. D. Hanson-Heine,  
 P. H. P. Harbach,  A. W. Hauser,  M. F. Herbst,  M. Hernandez Vera,  
 M. Hodecker,  Z. C. Holden,  S. Houck,  Xunkun Huang,  Kerwin Hui,  
 B. C. Huynh,  M. Ivanov,  Hyunjun Ji,  Hanjie Jiang,  B. Kaduk,  S. Kaehler,  
 K. Khistyaev,  Jaehoon Kim,  P. Klunzinger,  Z. Koczor-Benda,  
 Joong Hoon Koh,  D. Kosenkov,  L. Koulias,  T. Kowalczyk,  C. M. Krauter,  
 K. Kue,  A. Kunitsa,  T. Kus,  A. Landau,  K. V. Lawler,  D. Lefrancois,  
 S. Lehtola,  Rain Li,  Yi-Pei Li,  Jiashu Liang,  M. Liebenthal,  
 Hung-Hsuan Lin,  You-Sheng Lin,  Fenglai Liu,  Kuan-Yu Liu,  
 M. Loipersberger,  A. Luenser,  A. Manjanath,  P. Manohar,  E. Mansoor,  
 S. F. Manzer,  Shan-Ping Mao,  A. V. Marenich,  T. Markovich,  S. Mason,  
 S. A. Maurer,  P. F. McLaughlin,  M. F. S. J. Menger,  J.-M. Mewes,  
 S. A. Mewes,  P. Morgante,  J. W. Mullinax,  K. J. Oosterbaan,  G. Paran,  
 Alexander C. Paul,  Suranjan K. Paul,  F. Pavosevic,  Zheng Pei,  S. Prager,  
 E. I. Proynov,  E. Ramos,  B. Rana,  A. E. Rask,  A. Rettig,  R. M. Richard,  
 F. Rob,  E. Rossomme,  T. Scheele,  M. Scheurer,  M. Schneider,  
 N. Sergueev,  S. M. Sharada,  W. Skomorowski,  D. W. Small,  C. J. Stein,  
 Yu-Chuan Su,  E. J. Sundstrom,  Zhen Tao,  J. Thirman,  T. Tsuchimochi,  
 N. M. Tubman,  S. P. Veccham,  O. Vydrov,  J. Wenzel,  J. Witte,  A. Yamada,  
 Kun Yao,  S. Yeganeh,  S. R. Yost,  A. Zech,  Igor Ying Zhang,  Xing Zhang,  
 Yu Zhang,  D. Zuev,  A. Aspuru-Guzik,  A. T. Bell,  N. A. Besley,  
 K. B. Bravaya,  B. R. Brooks,  D. Casanova,  Jeng-Da Chai,  S. Coriani,  
 C. J. Cramer,  A. E. DePrince, III,  R. A. DiStasio Jr.,  A. Dreuw,  
 B. D. Dunietz,  T. R. Furlani,  W. A. Goddard III,  S. Grimme,  
 S. Hammes-Schiffer,  T. Head-Gordon,  W. J. Hehre,  Chao-Ping Hsu,  
 T.-C. Jagau,  Yousung Jung,  A. Klamt,  Jing Kong,  D. S. Lambrecht,  
 WanZhen Liang,  N. J. Mayhall,  C. W. McCurdy,  J. B. Neaton,  
 C. Ochsenfeld,  J. A. Parkhill,  R. Peverati,  V. A. Rassolov,  Yihan Shao,  
 L. V. Slipchenko,  T. Stauch,  R. P. Steele,  J. E. Subotnik,  
 A. J. W. Thom,  A. Tkatchenko,  D. G. Truhlar,  T. Van Voorhis,  
 T. A. Wesolowski,  K. B. Whaley,  H. L. Woodcock III,  P. M. Zimmerman,  
 S. Faraji,  P. M. W. Gill,  M. Head-Gordon,  J. M. Herbert,  A. I. Krylov

 Additional authors for Version 5.4.1: 
 S. Kotaru,  Shaozhi Li,  Xiangyuan Li,  F. Matz,  A. Molle,  Haisheng Ren,  
 Yingli Su,  Hung-Yi Tsai,  C. Utku,  Fang Wang

 Contributors to earlier versions of Q-Chem not listed above: 
 R. D. Adamson,  B. Austin,  R. Baer,  J. Baker,  G. J. O. Beran,  
 K. Brandhorst,  S. T. Brown,  E. F. C. Byrd,  A. K. Chakraborty,  
 G. K. L. Chan,  Chun-Min Chang,  Yunqing Chen,  C.-L. Cheng,  
 Siu Hung Chien,  D. M. Chipman,  D. L. Crittenden,  H. Dachsel,  
 R. J. Doerksen,  A. D. Dutoi,  R. G. Edgar,  J. Fosso-Tande,  
 L. Fusti-Molnar,  D. Ghosh,  A. Ghysels,  A. Golubeva-Zadorozhnaya,  
 J. Gonthier,  M. S. Gordon,  S. R. Gwaltney,  G. Hawkins,  J. E. Herr,  
 A. Heyden,  S. Hirata,  E. G. Hohenstein,  G. Kedziora,  F. J. Keil,  
 C. Kelley,  Jihan Kim,  R. A. King,  R. Z. Khaliullin,  P. P. Korambath,  
 W. Kurlancheek,  A. Laurent,  A. M. Lee,  M. S. Lee,  S. V. Levchenko,  
 Ching Yeh Lin,  D. Liotard,  E. Livshits,  R. C. Lochan,  I. Lotan,  
 L. A. Martinez-Martinez,  P. E. Maslen,  N. Nair,  D. P. O'Neill,  
 D. Neuhauser,  E. Neuscamman,  C. M. Oana,  R. Olivares-Amaya,  R. Olson,  
 T. M. Perrine,  B. Peters,  P. A. Pieniazek,  A. Prociuk,  Y. M. Rhee,  
 J. Ritchie,  M. A. Rohrdanz,  E. Rosta,  N. J. Russ,  H. F. Schaefer III,  
 M. W. Schmidt,  N. E. Schultz,  S. Sharma,  N. Shenvi,  C. D. Sherrill,  
 A. C. Simmonett,  A. Sodt,  T. Stein,  D. Stuck,  K. S. Thanthiriwatte,  
 V. Vanovschi,  L. Vogt,  Tao Wang,  A. Warshel,  M. A. Watson,  
 C. F. Williams,  Q. Wu,  X. Xu,  Jun Yang,  W. Zhang,  Yan Zhao

 Please cite Q-Chem as follows:
 Y. Shao et al., Mol. Phys. 113, 184-215 (2015)
 DOI: 10.1080/00268976.2014.952696

 Q-Chem 5.4.1 for Intel X86 EM64T Linux

 Parts of Q-Chem use Armadillo 9.800.1 (Horizon Scraper).
 http://arma.sourceforge.net/

 Q-Chem begins on Sat May 21 13:29:32 2022  

 Host: gadi-cpu-clx-1495.gadi.nci.org.au
0

     Scratch files written to /jobfs/40841447.gadi-pbs/qchem3549563//
 Processing $rem in /apps/qchem/5.4.1/config/preferences:
 Processing $rem in /home/561/yj5695/.qchemrc:
 Symmetry turned off for PCM/SM12/SMD calculation
 Method-specific promolecule density matrix will be built for SM12 calculation

 Checking the input file for inconsistencies... 	...done.

--------------------------------------------------------------
User input:
--------------------------------------------------------------
$molecule
-1  1
C -0.7831450248  0.3880807879 -0.6941519914
N -1.6005124986  1.1241528076 -1.3571335521
N -1.0333610971  1.5340085901 -2.5199551544
C  0.2288679503  1.1247669623 -2.773209966
N  0.8582459936  1.4790194869 -3.866915278
S  0.7758858499  0.1280275261 -1.4290317442
S -1.2735604347 -0.4073358604  0.8619995996
O -1.6395505719 -1.7695782866  0.3895592606
O -0.013978425 -0.3484259045  1.640192084
N -2.3896885743  0.4120397119  1.5466468785
H -3.282973134  0.19996848  1.0961141283
C -1.7862613329  2.398139382 -3.4229553387
H -2.764592462  2.5580248277 -2.9740347755
H -1.8923946953  1.9106244708 -4.3931594298
H -1.2655888945  3.3498242903 -3.5408792882
C  2.1377444089  1.0087259763 -4.0367689712
C  2.8013163152  1.4390928769 -5.3127825032
O  2.7179763038  0.2847591536 -3.2148606912
H  2.8364621623  2.5319454034 -5.360035181
H  2.2134614654  1.0914279601 -6.1681505474
H  3.8119586954  1.0338553577 -5.3705545386
$end

$rem
jobtype sp
exchange M062X
basis 6-31+G*
xc_grid 1
SMX_GAS_PHASE = TRUE
solvent_method sm12
$end

$smx
solvent water
charges mk
$end
--------------------------------------------------------------
 ----------------------------------------------------------------
             Standard Nuclear Orientation (Angstroms)
    I     Atom           X                Y                Z
 ----------------------------------------------------------------
    1      C      -0.7831450248     0.3880807879    -0.6941519914
    2      N      -1.6005124986     1.1241528076    -1.3571335521
    3      N      -1.0333610971     1.5340085901    -2.5199551544
    4      C       0.2288679503     1.1247669623    -2.7732099660
    5      N       0.8582459936     1.4790194869    -3.8669152780
    6      S       0.7758858499     0.1280275261    -1.4290317442
    7      S      -1.2735604347    -0.4073358604     0.8619995996
    8      O      -1.6395505719    -1.7695782866     0.3895592606
    9      O      -0.0139784250    -0.3484259045     1.6401920840
   10      N      -2.3896885743     0.4120397119     1.5466468785
   11      H      -3.2829731340     0.1999684800     1.0961141283
   12      C      -1.7862613329     2.3981393820    -3.4229553387
   13      H      -2.7645924620     2.5580248277    -2.9740347755
   14      H      -1.8923946953     1.9106244708    -4.3931594298
   15      H      -1.2655888945     3.3498242903    -3.5408792882
   16      C       2.1377444089     1.0087259763    -4.0367689712
   17      C       2.8013163152     1.4390928769    -5.3127825032
   18      O       2.7179763038     0.2847591536    -3.2148606912
   19      H       2.8364621623     2.5319454034    -5.3600351810
   20      H       2.2134614654     1.0914279601    -6.1681505474
   21      H       3.8119586954     1.0338553577    -5.3705545386
 ----------------------------------------------------------------
 Nuclear Repulsion Energy =        1176.99004559 hartrees
 There are       61 alpha and       61 beta electrons
 Requested basis set is 6-31+G(d)
 There are 86 shells and 288 basis functions

 Total QAlloc Memory Limit   2000 MB
 Mega-Array Size       188 MB
 MEM_STATIC part       192 MB
 A cutoff of  1.0D-08 yielded   2666 shell pairs
 There are     32688 function pairs
 Smallest overlap matrix eigenvalue = 1.42E-05

 Q-Chem warning in module stvman/mkSTV.C, line 323:

 Overlap eigenvalue is smaller than square root of threshold
 Use THRESH >= 12 to get rid of this warning


 Scale SEOQF with 1.000000e-01/1.000000e-01/1.000000e-02

 Standard Electronic Orientation quadrupole field applied
 Nucleus-field energy     =     0.0000000145 hartrees
 ================ Generating on-the-fly Promolecule Density  ================
Attempting to make child job directory: /jobfs/40841447.gadi-pbs/qchem3549563//Frg1/
Attempting to make child job directory: /jobfs/40841447.gadi-pbs/qchem3549563//Frg2/
Attempting to make child job directory: /jobfs/40841447.gadi-pbs/qchem3549563//Frg3/
Attempting to make child job directory: /jobfs/40841447.gadi-pbs/qchem3549563//Frg4/
Attempting to make child job directory: /jobfs/40841447.gadi-pbs/qchem3549563//Frg5/
Creating input file /jobfs/40841447.gadi-pbs/qchem3549563/Frg1.input
using default PutDataFrgm: nothing
calling putenv with: QCSCRATCH=/jobfs/40841447.gadi-pbs/qchem3549563/ 
Spawning Job For Fragment 0
Done Job For Fragment 0
calling putenv with: QCSCRATCH=/jobfs/40841447.gadi-pbs 
calling putenv with: QCTHREADS=16 
Creating input file /jobfs/40841447.gadi-pbs/qchem3549563/Frg2.input
using default PutDataFrgm: nothing
calling putenv with: QCSCRATCH=/jobfs/40841447.gadi-pbs/qchem3549563/ 
Spawning Job For Fragment 1
Done Job For Fragment 1
calling putenv with: QCSCRATCH=/jobfs/40841447.gadi-pbs 
calling putenv with: QCTHREADS=16 
Creating input file /jobfs/40841447.gadi-pbs/qchem3549563/Frg3.input
using default PutDataFrgm: nothing
calling putenv with: QCSCRATCH=/jobfs/40841447.gadi-pbs/qchem3549563/ 
Spawning Job For Fragment 2
Done Job For Fragment 2
calling putenv with: QCSCRATCH=/jobfs/40841447.gadi-pbs 
calling putenv with: QCTHREADS=16 
Creating input file /jobfs/40841447.gadi-pbs/qchem3549563/Frg4.input
using default PutDataFrgm: nothing
calling putenv with: QCSCRATCH=/jobfs/40841447.gadi-pbs/qchem3549563/ 
Spawning Job For Fragment 3
Done Job For Fragment 3
calling putenv with: QCSCRATCH=/jobfs/40841447.gadi-pbs 
calling putenv with: QCTHREADS=16 
Creating input file /jobfs/40841447.gadi-pbs/qchem3549563/Frg5.input
using default PutDataFrgm: nothing
calling putenv with: QCSCRATCH=/jobfs/40841447.gadi-pbs/qchem3549563/ 
Spawning Job For Fragment 4
Done Job For Fragment 4
calling putenv with: QCSCRATCH=/jobfs/40841447.gadi-pbs 
calling putenv with: QCTHREADS=16 
 Time for running child jobs:  CPU 2.23 s  wall 2.08 s
 ============= Method Specific Promolecule Density Constructed =============
 Guess from superposition of atomic densities
 Warning:  Energy on first SCF cycle will be non-variational
 SAD guess density has 121.000000 electrons

 -----------------------------------------------------------------------
  General SCF calculation program by
  Eric Jon Sundstrom, Paul Horn, Yuezhi Mao, Dmitri Zuev, Alec White,
  David Stuck, Shaama M.S., Shane Yost, Joonho Lee, David Small,
  Daniel Levine, Susi Lehtola, Hugh Burton, Evgeny Epifanovsky,
  Bang C. Huynh
 -----------------------------------------------------------------------
 Exchange:     0.5400 Hartree-Fock + 1.0000 M06-2X
 Correlation:  1.0000 M06-2X
 Using SG-1 standard quadrature grid
 using 16 threads for integral computing
 -------------------------------------------------------
 OpenMP Integral computing Module                
 Release: version 1.0, May 2013, Q-Chem Inc. Pittsburgh 
 -------------------------------------------------------
 A restricted SCF calculation will be
 performed using DIIS
 SCF converges when DIIS error is below 1.0e-05
 ---------------------------------------
  Cycle       Energy         DIIS error
 ---------------------------------------
    1   -1439.5218268596      4.49e-02  
    2   -1435.1045162593      6.42e-03  
    3   -1434.7741839245      9.26e-03  
    4   -1435.4657625421      9.80e-04  
    5   -1435.4735391641      4.82e-04  
    6   -1435.4756300226      1.31e-04  
    7   -1435.4757838602      5.13e-05  
    8   -1435.4758095021      1.60e-05  
    9   -1435.4758140128      6.89e-06  Convergence criterion met
 ---------------------------------------
 SCF time:   CPU 76.62s  wall 5.00s 
 SCF   energy in the final basis set =    -1435.4758140128
 Total energy in the final basis set =    -1435.4758140128
 Exchange:     0.5400 Hartree-Fock + 1.0000 M06-2X
 Correlation:  1.0000 M06-2X
 Using SG-1 standard quadrature grid
 
 SM12 calculation using Merz-Singh-Kollman charges
 Citation of the SM12 model:
 Marenich, A.V.; Cramer, C.J.; Truhlar, D.G.
 J. Chem. Theory Comput. 2013, 9, 609-612.
 iSolventCode=           1
 Solvent: water                                                           
 
  Building new vdw surfaces
         Merz-Kollman ESP Net Atomic Charges

     Atom                 Charge (a.u.)
  ----------------------------------------
      1 C                     0.059704
      2 N                    -0.561882
      3 N                     0.588636
      4 C                     0.205231
      5 N                    -0.840641
      6 S                     0.093680
      7 S                     1.180015
      8 O                    -0.684574
      9 O                    -0.619842
     10 N                    -0.962310
     11 H                     0.367038
     12 C                    -0.518496
     13 H                     0.182389
     14 H                     0.159210
     15 H                     0.163819
     16 C                     1.040076
     17 C                    -0.798866
     18 O                    -0.638907
     19 H                     0.202399
     20 H                     0.202021
     21 H                     0.181301
  ----------------------------------------
  Sum of atomic charges =    -1.000000

  Related Dipole Moment =     5.0996 (X  1.1529 Y  3.0340 Z -3.9334)


 Charges (in A.U.) from Merz-Kollman fitting 
 -----------------------------------------------
 Center     Atomic                  MZ       
 Number     Number                  Charge
 -----------------------------------------------
    1          6                    0.059704
    2          7                   -0.561882
    3          7                    0.588636
    4          6                    0.205231
    5          7                   -0.840641
    6         16                    0.093680
    7         16                    1.180015
    8          8                   -0.684574
    9          8                   -0.619842
   10          7                   -0.962310
   11          1                    0.367038
   12          6                   -0.518496
   13          1                    0.182389
   14          1                    0.159210
   15          1                    0.163819
   16          6                    1.040076
   17          6                   -0.798866
   18          8                   -0.638907
   19          1                    0.202399
   20          1                    0.202021
   21          1                    0.181301
 -----------------------------------------------
 A restricted SCF calculation will be
 performed using Roothaan-Hall, DIIS
 SCF converges when DIIS error is below 1.0e-05
 ---------------------------------------
  Cycle       Energy         DIIS error
 ---------------------------------------
         Merz-Kollman ESP Net Atomic Charges

     Atom                 Charge (a.u.)
  ----------------------------------------
      1 C                     0.025358
      2 N                    -0.520273
      3 N                     0.560297
      4 C                     0.286267
      5 N                    -0.848324
      6 S                     0.053876
      7 S                     1.197708
      8 O                    -0.718646
      9 O                    -0.663040
     10 N                    -1.003161
     11 H                     0.392187
     12 C                    -0.488291
     13 H                     0.189534
     14 H                     0.169826
     15 H                     0.174526
     16 C                     1.046142
     17 C                    -0.800430
     18 O                    -0.682151
     19 H                     0.219807
     20 H                     0.219507
     21 H                     0.189281
  ----------------------------------------
  Sum of atomic charges =    -1.000000

  Related Dipole Moment =     8.0136 (X  0.7776 Y  4.6230 Z -6.4993)


 Charges (in A.U.) from Merz-Kollman fitting 
 -----------------------------------------------
 Center     Atomic                  MZ       
 Number     Number                  Charge
 -----------------------------------------------
    1          6                    0.025358
    2          7                   -0.520273
    3          7                    0.560297
    4          6                    0.286267
    5          7                   -0.848324
    6         16                    0.053876
    7         16                    1.197708
    8          8                   -0.718646
    9          8                   -0.663040
   10          7                   -1.003161
   11          1                    0.392187
   12          6                   -0.488291
   13          1                    0.189534
   14          1                    0.169826
   15          1                    0.174526
   16          6                    1.046142
   17          6                   -0.800430
   18          8                   -0.682151
   19          1                    0.219807
   20          1                    0.219507
   21          1                    0.189281
 -----------------------------------------------
    1   -1435.4758139263      5.33e-04  Roothaan Step
 ---------------------------------------
  Cycle       Energy         DIIS error
 ---------------------------------------
         Merz-Kollman ESP Net Atomic Charges

     Atom                 Charge (a.u.)
  ----------------------------------------
      1 C                     0.080026
      2 N                    -0.550813
      3 N                     0.512780
      4 C                     0.253151
      5 N                    -0.857364
      6 S                     0.090463
      7 S                     1.227207
      8 O                    -0.731879
      9 O                    -0.666937
     10 N                    -1.021807
     11 H                     0.385828
     12 C                    -0.513574
     13 H                     0.204683
     14 H                     0.184575
     15 H                     0.189872
     16 C                     1.029028
     17 C                    -0.821893
     18 O                    -0.648424
     19 H                     0.227622
     20 H                     0.227394
     21 H                     0.200063
  ----------------------------------------
  Sum of atomic charges =    -1.000000

  Related Dipole Moment =     7.8336 (X  1.4955 Y  4.2895 Z -6.3820)


 Charges (in A.U.) from Merz-Kollman fitting 
 -----------------------------------------------
 Center     Atomic                  MZ       
 Number     Number                  Charge
 -----------------------------------------------
    1          6                    0.080026
    2          7                   -0.550813
    3          7                    0.512780
    4          6                    0.253151
    5          7                   -0.857364
    6         16                    0.090463
    7         16                    1.227207
    8          8                   -0.731879
    9          8                   -0.666937
   10          7                   -1.021807
   11          1                    0.385828
   12          6                   -0.513574
   13          1                    0.204683
   14          1                    0.184575
   15          1                    0.189872
   16          6                    1.029028
   17          6                   -0.821893
   18          8                   -0.648424
   19          1                    0.227622
   20          1                    0.227394
   21          1                    0.200063
 -----------------------------------------------
    1   -1435.4665091266      3.61e-04  
         Merz-Kollman ESP Net Atomic Charges

     Atom                 Charge (a.u.)
  ----------------------------------------
      1 C                     0.039317
      2 N                    -0.528731
      3 N                     0.545533
      4 C                     0.277317
      5 N                    -0.855807
      6 S                     0.068823
      7 S                     1.230134
      8 O                    -0.733971
      9 O                    -0.673513
     10 N                    -1.020579
     11 H                     0.388736
     12 C                    -0.511294
     13 H                     0.201298
     14 H                     0.181477
     15 H                     0.186482
     16 C                     1.043290
     17 C                    -0.818392
     18 O                    -0.673325
     19 H                     0.227584
     20 H                     0.227402
     21 H                     0.198218
  ----------------------------------------
  Sum of atomic charges =    -1.000000

  Related Dipole Moment =     8.3371 (X  1.1161 Y  4.6821 Z -6.8072)


 Charges (in A.U.) from Merz-Kollman fitting 
 -----------------------------------------------
 Center     Atomic                  MZ       
 Number     Number                  Charge
 -----------------------------------------------
    1          6                    0.039317
    2          7                   -0.528731
    3          7                    0.545533
    4          6                    0.277317
    5          7                   -0.855807
    6         16                    0.068823
    7         16                    1.230134
    8          8                   -0.733971
    9          8                   -0.673513
   10          7                   -1.020579
   11          1                    0.388736
   12          6                   -0.511294
   13          1                    0.201298
   14          1                    0.181477
   15          1                    0.186482
   16          6                    1.043290
   17          6                   -0.818392
   18          8                   -0.673325
   19          1                    0.227584
   20          1                    0.227402
   21          1                    0.198218
 -----------------------------------------------
    2   -1435.4666616942      4.42e-04  
         Merz-Kollman ESP Net Atomic Charges

     Atom                 Charge (a.u.)
  ----------------------------------------
      1 C                     0.043090
      2 N                    -0.530218
      3 N                     0.537436
      4 C                     0.280552
      5 N                    -0.857830
      6 S                     0.070844
      7 S                     1.232630
      8 O                    -0.735921
      9 O                    -0.675452
     10 N                    -1.025718
     11 H                     0.390137
     12 C                    -0.508375
     13 H                     0.201695
     14 H                     0.182125
     15 H                     0.187082
     16 C                     1.041249
     17 C                    -0.818928
     18 O                    -0.669849
     19 H                     0.228313
     20 H                     0.228153
     21 H                     0.198984
  ----------------------------------------
  Sum of atomic charges =    -1.000000

  Related Dipole Moment =     8.4393 (X  1.2027 Y  4.6938 Z -6.9097)


 Charges (in A.U.) from Merz-Kollman fitting 
 -----------------------------------------------
 Center     Atomic                  MZ       
 Number     Number                  Charge
 -----------------------------------------------
    1          6                    0.043090
    2          7                   -0.530218
    3          7                    0.537436
    4          6                    0.280552
    5          7                   -0.857830
    6         16                    0.070844
    7         16                    1.232630
    8          8                   -0.735921
    9          8                   -0.675452
   10          7                   -1.025718
   11          1                    0.390137
   12          6                   -0.508375
   13          1                    0.201695
   14          1                    0.182125
   15          1                    0.187082
   16          6                    1.041249
   17          6                   -0.818928
   18          8                   -0.669849
   19          1                    0.228313
   20          1                    0.228153
   21          1                    0.198984
 -----------------------------------------------
    3   -1435.4656759666      6.52e-05  
         Merz-Kollman ESP Net Atomic Charges

     Atom                 Charge (a.u.)
  ----------------------------------------
      1 C                     0.040706
      2 N                    -0.528255
      3 N                     0.538108
      4 C                     0.279250
      5 N                    -0.857268
      6 S                     0.071155
      7 S                     1.233560
      8 O                    -0.736717
      9 O                    -0.675585
     10 N                    -1.026059
     11 H                     0.389529
     12 C                    -0.510790
     13 H                     0.202716
     14 H                     0.183064
     15 H                     0.188096
     16 C                     1.041527
     17 C                    -0.820323
     18 O                    -0.670460
     19 H                     0.229098
     20 H                     0.228926
     21 H                     0.199722
  ----------------------------------------
  Sum of atomic charges =    -1.000000

  Related Dipole Moment =     8.4956 (X  1.2104 Y  4.7238 Z -6.9567)


 Charges (in A.U.) from Merz-Kollman fitting 
 -----------------------------------------------
 Center     Atomic                  MZ       
 Number     Number                  Charge
 -----------------------------------------------
    1          6                    0.040706
    2          7                   -0.528255
    3          7                    0.538108
    4          6                    0.279250
    5          7                   -0.857268
    6         16                    0.071155
    7         16                    1.233560
    8          8                   -0.736717
    9          8                   -0.675585
   10          7                   -1.026059
   11          1                    0.389529
   12          6                   -0.510790
   13          1                    0.202716
   14          1                    0.183064
   15          1                    0.188096
   16          6                    1.041527
   17          6                   -0.820323
   18          8                   -0.670460
   19          1                    0.229098
   20          1                    0.228926
   21          1                    0.199722
 -----------------------------------------------
    4   -1435.4651277435      3.48e-05  
    5   -1435.4648315875      8.22e-06  Convergence criterion met
 ---------------------------------------
 SCF time:   CPU 78.51s  wall 5.00s 
(0)  E-EN(g) gas-phase elect-nuc energy                -1435.475814013 a.u.
(1)  E-EN(liq) elect-nuc energy of solute              -1435.464831588 a.u.
(2)  G-P(liq) polarization free energy of solvation           -75.0082 kcal/mol
(3)  G-ENP(liq) elect-nuc-pol free energy of system    -1435.584364709 a.u.
(4)  G-CDS(liq) cavity-dispersion-solvent structure 
     free energy                                                1.8388 kcal/mol
(5)  G-P-CDS(liq) = G-P(liq) + G-CDS(liq) = (2) + (4)         -73.1693 kcal/mol
(6)  G-S(liq) free energy of system = (1) + (5)        -1435.581434368 a.u.
(7)  DeltaE-EN(liq) elect-nuc reorganization
     energy of solute molecule (7) = (1) - (0)                  6.8916 kcal/mol
(8)  DeltaG-ENP(liq) elect-nuc-pol free energy
     of solvation (8) = (3) - (0)                             -68.1166 kcal/mol
(9)  DeltaG-S(liq) free energy of  solvation
     (9) = (6) - (0)                                          -66.2778 kcal/mol
 SCF   energy in the final basis set =    -1435.5814343675
 Total energy in the final basis set =    -1435.5814343675
 
 --------------------------------------------------------------
 
                    Orbital Energies (a.u.)
 --------------------------------------------------------------
 
 Alpha MOs
 -- Occupied --
-90.1570 -89.9906 -19.6420 -19.6373 -19.6358 -14.8804 -14.8439 -14.7687
-14.7418 -10.6918 -10.6699 -10.6476 -10.5961 -10.5534  -8.4644  -8.3333
 -6.3865  -6.3862  -6.3855  -6.2533  -6.2511  -6.2478  -1.2308  -1.2126
 -1.1778  -1.1115  -1.0540  -0.9964  -0.9822  -0.9228  -0.8468  -0.8298
 -0.7767  -0.7178  -0.6751  -0.6438  -0.5956  -0.5884  -0.5812  -0.5720
 -0.5656  -0.5374  -0.5301  -0.5286  -0.4960  -0.4904  -0.4730  -0.4656
 -0.4546  -0.4400  -0.4195  -0.4148  -0.4056  -0.3943  -0.3886  -0.3713
 -0.3657  -0.3451  -0.3411  -0.3256  -0.3018
 -- Virtual --
 -0.0261  -0.0233  -0.0154   0.0028   0.0048   0.0057   0.0088   0.0233
  0.0349   0.0362   0.0391   0.0421   0.0545   0.0554   0.0638   0.0664
  0.0704   0.0774   0.0796   0.0859   0.0907   0.0983   0.1049   0.1092
  0.1102   0.1166   0.1256   0.1290   0.1364   0.1413   0.1447   0.1588
  0.1654   0.1768   0.1769   0.1798   0.1888   0.1987   0.2060   0.2077
  0.2166   0.2196   0.2311   0.2342   0.2358   0.2390   0.2456   0.2510
  0.2544   0.2581   0.2645   0.2699   0.2782   0.2811   0.2857   0.2914
  0.2950   0.3021   0.3055   0.3091   0.3131   0.3189   0.3293   0.3367
  0.3386   0.3494   0.3517   0.3597   0.3612   0.3760   0.3859   0.4045
  0.4147   0.4239   0.4378   0.4408   0.4610   0.4915   0.5046   0.5316
  0.5435   0.5679   0.5885   0.6206   0.6388   0.6473   0.6737   0.6842
  0.6846   0.6981   0.7145   0.7195   0.7255   0.7320   0.7614   0.7700
  0.7793   0.8014   0.8031   0.8576   0.8857   0.8909   0.9058   0.9391
  0.9613   0.9676   0.9771   0.9856   0.9937   1.0175   1.0206   1.0262
  1.0453   1.0532   1.0588   1.0631   1.0768   1.0799   1.0844   1.0957
  1.1038   1.1337   1.1416   1.1471   1.1604   1.1854   1.1932   1.2074
  1.2118   1.2503   1.2622   1.2872   1.3057   1.3127   1.3301   1.3433
  1.3532   1.3658   1.3709   1.3776   1.3875   1.3986   1.4085   1.4226
  1.4435   1.4538   1.4679   1.4768   1.4874   1.5171   1.5482   1.5565
  1.5776   1.6409   1.6537   1.6796   1.7131   1.7571   1.7682   1.7891
  1.7958   1.8183   1.8395   1.8453   1.8587   1.8695   1.8812   1.8910
  1.8965   1.9182   1.9638   1.9708   1.9831   1.9871   2.0146   2.0295
  2.0347   2.0910   2.0987   2.1321   2.1436   2.1701   2.2000   2.2268
  2.2729   2.2802   2.3116   2.3216   2.3360   2.3729   2.3818   2.3940
  2.4038   2.4360   2.4598   2.4671   2.4819   2.5009   2.5725   2.6052
  2.6246   2.6387   2.7073   2.8132   2.8231   2.8765   2.9102   2.9186
  2.9786   3.0656   3.1119   3.2006   3.2653   3.9765   4.0069   4.0631
  4.0730   4.1348   4.2779   4.2854   4.3030   4.3339   4.3815   4.3988
  4.4633   4.4763   4.6352
 --------------------------------------------------------------
 
          Ground-State Mulliken Net Atomic Charges

     Atom                 Charge (a.u.)
  ----------------------------------------
      1 C                    -1.346827
      2 N                    -0.654522
      3 N                     0.489110
      4 C                     0.024691
      5 N                    -0.170146
      6 S                     0.934045
      7 S                     0.538773
      8 O                    -0.728568
      9 O                    -0.801979
     10 N                    -0.974970
     11 H                     0.416297
     12 C                    -0.066232
     13 H                     0.293703
     14 H                     0.297666
     15 H                     0.298969
     16 C                     0.536473
     17 C                    -0.180199
     18 O                    -0.707630
     19 H                     0.273074
     20 H                     0.273090
     21 H                     0.255183
  ----------------------------------------
  Sum of atomic charges =    -1.000000

         Merz-Kollman ESP Net Atomic Charges

     Atom                 Charge (a.u.)
  ----------------------------------------
      1 C                     0.041215
      2 N                    -0.528746
      3 N                     0.538405
      4 C                     0.279678
      5 N                    -0.857650
      6 S                     0.071128
      7 S                     1.236051
      8 O                    -0.737469
      9 O                    -0.676435
     10 N                    -1.027085
     11 H                     0.389471
     12 C                    -0.511517
     13 H                     0.202902
     14 H                     0.183254
     15 H                     0.188266
     16 C                     1.041441
     17 C                    -0.820663
     18 O                    -0.670375
     19 H                     0.229201
     20 H                     0.229044
     21 H                     0.199884
  ----------------------------------------
  Sum of atomic charges =    -1.000000

  Related Dipole Moment =     8.5001 (X  1.2153 Y  4.7231 Z -6.9619)

 -----------------------------------------------------------------
                    Cartesian Multipole Moments
 -----------------------------------------------------------------
    Charge (ESU x 10^10)
                -4.8032
    Dipole Moment (Debye)
         X       1.2304      Y       4.7178      Z      -7.0410
       Tot       8.5643
    Quadrupole Moments (Debye-Ang)
        XX    -112.6507     XY      -4.8247     YY    -103.0024
        XZ      17.6142     YZ      -7.9886     ZZ    -105.7351
    Octopole Moments (Debye-Ang^2)
       XXX      14.8785    XXY     -33.8298    XYY      22.9522
       YYY    -127.3010    XXZ     134.1278    XYZ       9.6720
       YYZ     125.9303    XZZ      10.5090    YZZ     -28.2210
       ZZZ     376.9601
    Hexadecapole Moments (Debye-Ang^3)
      XXXX   -1757.7210   XXXY     -68.1800   XXYY    -434.0787
      XYYY    -110.0834   YYYY    -871.8235   XXXZ     737.4763
      XXYZ     151.3361   XYYZ     251.8464   YYYZ     653.9879
      XXZZ    -961.3480   XYZZ     -10.5835   YYZZ    -805.4116
      XZZZ     648.3446   YZZZ     601.5490   ZZZZ   -4011.2775
 -----------------------------------------------------------------
 Total job time:  12.43s(wall), 163.23s(cpu) 
 Sat May 21 13:29:45 2022

        *************************************************************
        *                                                           *
        *  Thank you very much for using Q-Chem.  Have a nice day.  *
        *                                                           *
        *************************************************************


