                  Welcome to Q-Chem
     A Quantum Leap Into The Future Of Chemistry


 Q-Chem 5.4 (devel), Q-Chem, Inc., Pleasanton, CA (2021)

 E. Epifanovsky,  A. T. B. Gilbert,  Xintian Feng,  Joonho Lee,  Yuezhi Mao,  
 N. Mardirossian,  P. Pokhilko,  A. White,  M. Wormit,  M. P. Coons,  
 A. L. Dempwolff,  Zhengting Gan,  D. Hait,  P. R. Horn,  L. D. Jacobson,  
 I. Kaliman,  J. Kussmann,  A. W. Lange,  Ka Un Lao,  D. S. Levine,  Jie Liu,  
 S. C. McKenzie,  A. F. Morrison,  K. Nanda,  F. Plasser,  D. R. Rehn,  
 M. L. Vidal,  Zhi-Qiang You,  Ying Zhu,  B. Alam,  B. Albrecht,  
 A. Aldossary,  E. Alguire,  J. H. Andersen,  D. Barton,  K. Begam,  A. Behn,  
 Y. A. Bernard,  E. J. Berquist,  H. Burton,  A. Carreras,  K. Carter-Fenk,  
 R. Chakraborty,  A. D. Chien,  K. D. Closser,  V. Cofer-Shabica,  
 S. Dasgupta,  Jia Deng,  M. de Wergifosse,  M. Diedenhofen,  Hainam Do,  
 S. Ehlert,  Po-Tung Fang,  S. Fatehi,  Qingguo Feng,  T. Friedhoff,  
 J. Gayvert,  Qinghui Ge,  G. Gidofalvi,  M. Goldey,  J. Gomes,  
 C. Gonzalez-Espinoza,  S. Gulania,  A. Gunina,  M. W. D. Hanson-Heine,  
 P. H. P. Harbach,  A. W. Hauser,  M. F. Herbst,  M. Hernandez Vera,  
 M. Hodecker,  Z. C. Holden,  S. Houck,  Xunkun Huang,  Kerwin Hui,  
 B. C. Huynh,  M. Ivanov,  Hyunjun Ji,  Hanjie Jiang,  B. Kaduk,  S. Kaehler,  
 K. Khistyaev,  Jaehoon Kim,  P. Klunzinger,  Z. Koczor-Benda,  
 Joong Hoon Koh,  D. Kosenkov,  L. Koulias,  T. Kowalczyk,  C. M. Krauter,  
 K. Kue,  A. Kunitsa,  T. Kus,  A. Landau,  K. V. Lawler,  D. Lefrancois,  
 S. Lehtola,  Rain Li,  Yi-Pei Li,  Jiashu Liang,  M. Liebenthal,  
 Hung-Hsuan Lin,  You-Sheng Lin,  Fenglai Liu,  Kuan-Yu Liu,  
 M. Loipersberger,  A. Luenser,  A. Manjanath,  P. Manohar,  E. Mansoor,  
 S. F. Manzer,  Shan-Ping Mao,  A. V. Marenich,  T. Markovich,  S. Mason,  
 S. A. Maurer,  P. F. McLaughlin,  M. F. S. J. Menger,  J.-M. Mewes,  
 S. A. Mewes,  P. Morgante,  J. W. Mullinax,  K. J. Oosterbaan,  G. Paran,  
 Alexander C. Paul,  Suranjan K. Paul,  F. Pavosevic,  Zheng Pei,  S. Prager,  
 E. I. Proynov,  E. Ramos,  B. Rana,  A. E. Rask,  A. Rettig,  R. M. Richard,  
 F. Rob,  E. Rossomme,  T. Scheele,  M. Scheurer,  M. Schneider,  
 N. Sergueev,  S. M. Sharada,  W. Skomorowski,  D. W. Small,  C. J. Stein,  
 Yu-Chuan Su,  E. J. Sundstrom,  Zhen Tao,  J. Thirman,  T. Tsuchimochi,  
 N. M. Tubman,  S. P. Veccham,  O. Vydrov,  J. Wenzel,  J. Witte,  A. Yamada,  
 Kun Yao,  S. Yeganeh,  S. R. Yost,  A. Zech,  Igor Ying Zhang,  Xing Zhang,  
 Yu Zhang,  D. Zuev,  A. Aspuru-Guzik,  A. T. Bell,  N. A. Besley,  
 K. B. Bravaya,  B. R. Brooks,  D. Casanova,  Jeng-Da Chai,  S. Coriani,  
 C. J. Cramer,  A. E. DePrince, III,  R. A. DiStasio Jr.,  A. Dreuw,  
 B. D. Dunietz,  T. R. Furlani,  W. A. Goddard III,  S. Grimme,  
 S. Hammes-Schiffer,  T. Head-Gordon,  W. J. Hehre,  Chao-Ping Hsu,  
 T.-C. Jagau,  Yousung Jung,  A. Klamt,  Jing Kong,  D. S. Lambrecht,  
 WanZhen Liang,  N. J. Mayhall,  C. W. McCurdy,  J. B. Neaton,  
 C. Ochsenfeld,  J. A. Parkhill,  R. Peverati,  V. A. Rassolov,  Yihan Shao,  
 L. V. Slipchenko,  T. Stauch,  R. P. Steele,  J. E. Subotnik,  
 A. J. W. Thom,  A. Tkatchenko,  D. G. Truhlar,  T. Van Voorhis,  
 T. A. Wesolowski,  K. B. Whaley,  H. L. Woodcock III,  P. M. Zimmerman,  
 S. Faraji,  P. M. W. Gill,  M. Head-Gordon,  J. M. Herbert,  A. I. Krylov

 Additional authors for Version 5.4.1: 
 S. Kotaru,  Shaozhi Li,  Xiangyuan Li,  F. Matz,  A. Molle,  Haisheng Ren,  
 Yingli Su,  Hung-Yi Tsai,  C. Utku,  Fang Wang

 Contributors to earlier versions of Q-Chem not listed above: 
 R. D. Adamson,  B. Austin,  R. Baer,  J. Baker,  G. J. O. Beran,  
 K. Brandhorst,  S. T. Brown,  E. F. C. Byrd,  A. K. Chakraborty,  
 G. K. L. Chan,  Chun-Min Chang,  Yunqing Chen,  C.-L. Cheng,  
 Siu Hung Chien,  D. M. Chipman,  D. L. Crittenden,  H. Dachsel,  
 R. J. Doerksen,  A. D. Dutoi,  R. G. Edgar,  J. Fosso-Tande,  
 L. Fusti-Molnar,  D. Ghosh,  A. Ghysels,  A. Golubeva-Zadorozhnaya,  
 J. Gonthier,  M. S. Gordon,  S. R. Gwaltney,  G. Hawkins,  J. E. Herr,  
 A. Heyden,  S. Hirata,  E. G. Hohenstein,  G. Kedziora,  F. J. Keil,  
 C. Kelley,  Jihan Kim,  R. A. King,  R. Z. Khaliullin,  P. P. Korambath,  
 W. Kurlancheek,  A. Laurent,  A. M. Lee,  M. S. Lee,  S. V. Levchenko,  
 Ching Yeh Lin,  D. Liotard,  E. Livshits,  R. C. Lochan,  I. Lotan,  
 L. A. Martinez-Martinez,  P. E. Maslen,  N. Nair,  D. P. O'Neill,  
 D. Neuhauser,  E. Neuscamman,  C. M. Oana,  R. Olivares-Amaya,  R. Olson,  
 T. M. Perrine,  B. Peters,  P. A. Pieniazek,  A. Prociuk,  Y. M. Rhee,  
 J. Ritchie,  M. A. Rohrdanz,  E. Rosta,  N. J. Russ,  H. F. Schaefer III,  
 M. W. Schmidt,  N. E. Schultz,  S. Sharma,  N. Shenvi,  C. D. Sherrill,  
 A. C. Simmonett,  A. Sodt,  T. Stein,  D. Stuck,  K. S. Thanthiriwatte,  
 V. Vanovschi,  L. Vogt,  Tao Wang,  A. Warshel,  M. A. Watson,  
 C. F. Williams,  Q. Wu,  X. Xu,  Jun Yang,  W. Zhang,  Yan Zhao

 Please cite Q-Chem as follows:
 Y. Shao et al., Mol. Phys. 113, 184-215 (2015)
 DOI: 10.1080/00268976.2014.952696

 Q-Chem 5.4.1 for Intel X86 EM64T Linux

 Parts of Q-Chem use Armadillo 9.800.1 (Horizon Scraper).
 http://arma.sourceforge.net/

 Q-Chem begins on Wed May 25 16:17:33 2022  

 Host: gadi-cpu-clx-2004.gadi.nci.org.au
0

     Scratch files written to /jobfs/41235934.gadi-pbs/qchem1767344//
 Processing $rem in /apps/qchem/5.4.1/config/preferences:
 Processing $rem in /home/561/yj5695/.qchemrc:
 Symmetry turned off for PCM/SM12/SMD calculation
 Method-specific promolecule density matrix will be built for SM12 calculation

 Checking the input file for inconsistencies... 	...done.

--------------------------------------------------------------
User input:
--------------------------------------------------------------
$molecule
-1  1
C -1.1041461486  0.6328958779 -1.4502448799
S -1.35801106  0.5826191065  0.3432709035
O -2.051966789 -0.7181328645  0.5427203357
O  0.0320912609  0.6315306997  0.8584517298
N -2.1406735436  1.8468550107  0.789561366
H -3.1281471966  1.7150148202  0.5561765121
N -2.0739475095  0.5661565527 -2.2922446841
C -1.5935385899  0.6909555775 -3.5898044941
C -0.202422899  0.8609028844 -3.6953429427
S  0.5033995419  0.8570482015 -2.1022276477
C -2.3733673831  0.6601006416 -4.7571032131
C -1.7517829341  0.8000674473 -5.9799115681
C -0.350894615  0.970753468 -6.0687837165
C  0.4456139154  1.0025028885 -4.9289011574
O  0.1354021307  1.0987511468 -7.3352043156
C  1.5465704496  1.2784341475 -7.4992210538
C  1.8191391973  1.3972765559 -8.9809782997
H -3.4489901161  0.5290526589 -4.6887195479
H -2.3257159777  0.7823201491 -6.9013348255
H  1.5203145623  1.1318899811 -4.9791543748
H  2.0698265637  0.4174364984 -7.0667165962
H  1.8567000735  2.1840073845 -6.9644938097
H  1.5034261825  0.4915600209 -9.5071880556
H  2.891724941  1.5366589074 -9.1441462479
H  1.2898219436  2.2559882376 -9.4045114167
$end

$rem
jobtype sp
exchange M062X
basis 6-31+G*
xc_grid 1
SMX_GAS_PHASE = TRUE
solvent_method sm12
$end

$smx
solvent water
charges mk
$end
--------------------------------------------------------------
 ----------------------------------------------------------------
             Standard Nuclear Orientation (Angstroms)
    I     Atom           X                Y                Z
 ----------------------------------------------------------------
    1      C      -1.1041461486     0.6328958779    -1.4502448799
    2      S      -1.3580110600     0.5826191065     0.3432709035
    3      O      -2.0519667890    -0.7181328645     0.5427203357
    4      O       0.0320912609     0.6315306997     0.8584517298
    5      N      -2.1406735436     1.8468550107     0.7895613660
    6      H      -3.1281471966     1.7150148202     0.5561765121
    7      N      -2.0739475095     0.5661565527    -2.2922446841
    8      C      -1.5935385899     0.6909555775    -3.5898044941
    9      C      -0.2024228990     0.8609028844    -3.6953429427
   10      S       0.5033995419     0.8570482015    -2.1022276477
   11      C      -2.3733673831     0.6601006416    -4.7571032131
   12      C      -1.7517829341     0.8000674473    -5.9799115681
   13      C      -0.3508946150     0.9707534680    -6.0687837165
   14      C       0.4456139154     1.0025028885    -4.9289011574
   15      O       0.1354021307     1.0987511468    -7.3352043156
   16      C       1.5465704496     1.2784341475    -7.4992210538
   17      C       1.8191391973     1.3972765559    -8.9809782997
   18      H      -3.4489901161     0.5290526589    -4.6887195479
   19      H      -2.3257159777     0.7823201491    -6.9013348255
   20      H       1.5203145623     1.1318899811    -4.9791543748
   21      H       2.0698265637     0.4174364984    -7.0667165962
   22      H       1.8567000735     2.1840073845    -6.9644938097
   23      H       1.5034261825     0.4915600209    -9.5071880556
   24      H       2.8917249410     1.5366589074    -9.1441462479
   25      H       1.2898219436     2.2559882376    -9.4045114167
 ----------------------------------------------------------------
 Nuclear Repulsion Energy =        1318.53431883 hartrees
 There are       67 alpha and       67 beta electrons
 Requested basis set is 6-31+G(d)
 There are 100 shells and 330 basis functions

 Total QAlloc Memory Limit   2000 MB
 Mega-Array Size       188 MB
 MEM_STATIC part       192 MB
 A cutoff of  1.0D-08 yielded   3343 shell pairs
 There are     39759 function pairs
 Smallest overlap matrix eigenvalue = 1.45E-07

 Q-Chem warning in module stvman/mkSTV.C, line 323:

 Overlap eigenvalue is smaller than square root of threshold
 Use THRESH >= 12 to get rid of this warning

 Linear dependence detected in AO basis
 Tighter screening thresholds may be required for diffuse basis sets
 Use S2THRESH > 14 and THRESH = 14 in case of SCF convergence issues
 Number of orthogonalized atomic orbitals = 329
 Maximum deviation from orthogonality = 3.262E-10

 Scale SEOQF with 1.000000e-01/1.000000e-01/1.000000e-02

 Standard Electronic Orientation quadrupole field applied
 Nucleus-field energy     =    -0.0000000097 hartrees
 ================ Generating on-the-fly Promolecule Density  ================
Attempting to make child job directory: /jobfs/41235934.gadi-pbs/qchem1767344//Frg1/
Attempting to make child job directory: /jobfs/41235934.gadi-pbs/qchem1767344//Frg2/
Attempting to make child job directory: /jobfs/41235934.gadi-pbs/qchem1767344//Frg3/
Attempting to make child job directory: /jobfs/41235934.gadi-pbs/qchem1767344//Frg4/
Attempting to make child job directory: /jobfs/41235934.gadi-pbs/qchem1767344//Frg5/
Creating input file /jobfs/41235934.gadi-pbs/qchem1767344/Frg1.input
using default PutDataFrgm: nothing
calling putenv with: QCSCRATCH=/jobfs/41235934.gadi-pbs/qchem1767344/ 
Spawning Job For Fragment 0
Done Job For Fragment 0
calling putenv with: QCSCRATCH=/jobfs/41235934.gadi-pbs 
calling putenv with: QCTHREADS=16 
Creating input file /jobfs/41235934.gadi-pbs/qchem1767344/Frg2.input
using default PutDataFrgm: nothing
calling putenv with: QCSCRATCH=/jobfs/41235934.gadi-pbs/qchem1767344/ 
Spawning Job For Fragment 1
Done Job For Fragment 1
calling putenv with: QCSCRATCH=/jobfs/41235934.gadi-pbs 
calling putenv with: QCTHREADS=16 
Creating input file /jobfs/41235934.gadi-pbs/qchem1767344/Frg3.input
using default PutDataFrgm: nothing
calling putenv with: QCSCRATCH=/jobfs/41235934.gadi-pbs/qchem1767344/ 
Spawning Job For Fragment 2
Done Job For Fragment 2
calling putenv with: QCSCRATCH=/jobfs/41235934.gadi-pbs 
calling putenv with: QCTHREADS=16 
Creating input file /jobfs/41235934.gadi-pbs/qchem1767344/Frg4.input
using default PutDataFrgm: nothing
calling putenv with: QCSCRATCH=/jobfs/41235934.gadi-pbs/qchem1767344/ 
Spawning Job For Fragment 3
Done Job For Fragment 3
calling putenv with: QCSCRATCH=/jobfs/41235934.gadi-pbs 
calling putenv with: QCTHREADS=16 
Creating input file /jobfs/41235934.gadi-pbs/qchem1767344/Frg5.input
using default PutDataFrgm: nothing
calling putenv with: QCSCRATCH=/jobfs/41235934.gadi-pbs/qchem1767344/ 
Spawning Job For Fragment 4
Done Job For Fragment 4
calling putenv with: QCSCRATCH=/jobfs/41235934.gadi-pbs 
calling putenv with: QCTHREADS=16 
 Time for running child jobs:  CPU 2.01 s  wall 3.03 s
 ============= Method Specific Promolecule Density Constructed =============
 Guess from superposition of atomic densities
 Warning:  Energy on first SCF cycle will be non-variational
 SAD guess density has 133.000000 electrons

 -----------------------------------------------------------------------
  General SCF calculation program by
  Eric Jon Sundstrom, Paul Horn, Yuezhi Mao, Dmitri Zuev, Alec White,
  David Stuck, Shaama M.S., Shane Yost, Joonho Lee, David Small,
  Daniel Levine, Susi Lehtola, Hugh Burton, Evgeny Epifanovsky,
  Bang C. Huynh
 -----------------------------------------------------------------------
 Exchange:     0.5400 Hartree-Fock + 1.0000 M06-2X
 Correlation:  1.0000 M06-2X
 Using SG-1 standard quadrature grid
 using 16 threads for integral computing
 -------------------------------------------------------
 OpenMP Integral computing Module                
 Release: version 1.0, May 2013, Q-Chem Inc. Pittsburgh 
 -------------------------------------------------------
 A restricted SCF calculation will be
 performed using DIIS
 SCF converges when DIIS error is below 1.0e-05
 ---------------------------------------
  Cycle       Energy         DIIS error
 ---------------------------------------
    1   -1484.4975521238      4.18e-02  
    2   -1479.2748135622      5.13e-03  
    3   -1479.0865654023      6.86e-03  
    4   -1479.5796459450      8.45e-04  
    5   -1479.5874968354      3.85e-04  
    6   -1479.5893449322      9.05e-05  
    7   -1479.5894434653      3.11e-05  
    8   -1479.5894547454      1.19e-05  
    9   -1479.5894571850      3.84e-06  Convergence criterion met
 ---------------------------------------
 SCF time:   CPU 110.86s  wall 8.00s 
 SCF   energy in the final basis set =    -1479.5894571850
 Total energy in the final basis set =    -1479.5894571850
 Exchange:     0.5400 Hartree-Fock + 1.0000 M06-2X
 Correlation:  1.0000 M06-2X
 Using SG-1 standard quadrature grid
 
 SM12 calculation using Merz-Singh-Kollman charges
 Citation of the SM12 model:
 Marenich, A.V.; Cramer, C.J.; Truhlar, D.G.
 J. Chem. Theory Comput. 2013, 9, 609-612.
 iSolventCode=           1
 Solvent: water                                                           
 
  Building new vdw surfaces
         Merz-Kollman ESP Net Atomic Charges

     Atom                 Charge (a.u.)
  ----------------------------------------
      1 C                     0.169449
      2 S                     1.103464
      3 O                    -0.653394
      4 O                    -0.609026
      5 N                    -0.966495
      6 H                     0.368235
      7 N                    -0.612208
      8 C                     0.613620
      9 C                    -0.146509
     10 S                    -0.026029
     11 C                    -0.372245
     12 C                    -0.294647
     13 C                     0.283268
     14 C                    -0.271503
     15 O                    -0.434105
     16 C                     0.483680
     17 C                    -0.580455
     18 H                     0.201804
     19 H                     0.183318
     20 H                     0.165205
     21 H                    -0.020616
     22 H                    -0.021773
     23 H                     0.156559
     24 H                     0.124089
     25 H                     0.156315
  ----------------------------------------
  Sum of atomic charges =    -1.000000

  Related Dipole Moment =     7.9727 (X  7.2777 Y -2.5783 Z -1.9877)


 Charges (in A.U.) from Merz-Kollman fitting 
 -----------------------------------------------
 Center     Atomic                  MZ       
 Number     Number                  Charge
 -----------------------------------------------
    1          6                    0.169449
    2         16                    1.103464
    3          8                   -0.653394
    4          8                   -0.609026
    5          7                   -0.966495
    6          1                    0.368235
    7          7                   -0.612208
    8          6                    0.613620
    9          6                   -0.146509
   10         16                   -0.026029
   11          6                   -0.372245
   12          6                   -0.294647
   13          6                    0.283268
   14          6                   -0.271503
   15          8                   -0.434105
   16          6                    0.483680
   17          6                   -0.580455
   18          1                    0.201804
   19          1                    0.183318
   20          1                    0.165205
   21          1                   -0.020616
   22          1                   -0.021773
   23          1                    0.156559
   24          1                    0.124089
   25          1                    0.156315
 -----------------------------------------------
 A restricted SCF calculation will be
 performed using Roothaan-Hall, DIIS
 SCF converges when DIIS error is below 1.0e-05
 ---------------------------------------
  Cycle       Energy         DIIS error
 ---------------------------------------
         Merz-Kollman ESP Net Atomic Charges

     Atom                 Charge (a.u.)
  ----------------------------------------
      1 C                     0.103644
      2 S                     1.112446
      3 O                    -0.690312
      4 O                    -0.639045
      5 N                    -1.008413
      6 H                     0.391486
      7 N                    -0.607418
      8 C                     0.565509
      9 C                    -0.100920
     10 S                    -0.003857
     11 C                    -0.376455
     12 C                    -0.287646
     13 C                     0.330336
     14 C                    -0.292916
     15 O                    -0.443657
     16 C                     0.485502
     17 C                    -0.584032
     18 H                     0.219422
     19 H                     0.199117
     20 H                     0.198649
     21 H                    -0.011672
     22 H                    -0.013160
     23 H                     0.158532
     24 H                     0.136796
     25 H                     0.158065
  ----------------------------------------
  Sum of atomic charges =    -1.000000

  Related Dipole Moment =    10.3054 (X  8.3219 Y -2.1858 Z -5.6717)


 Charges (in A.U.) from Merz-Kollman fitting 
 -----------------------------------------------
 Center     Atomic                  MZ       
 Number     Number                  Charge
 -----------------------------------------------
    1          6                    0.103644
    2         16                    1.112446
    3          8                   -0.690312
    4          8                   -0.639045
    5          7                   -1.008413
    6          1                    0.391486
    7          7                   -0.607418
    8          6                    0.565509
    9          6                   -0.100920
   10         16                   -0.003857
   11          6                   -0.376455
   12          6                   -0.287646
   13          6                    0.330336
   14          6                   -0.292916
   15          8                   -0.443657
   16          6                    0.485502
   17          6                   -0.584032
   18          1                    0.219422
   19          1                    0.199117
   20          1                    0.198649
   21          1                   -0.011672
   22          1                   -0.013160
   23          1                    0.158532
   24          1                    0.136796
   25          1                    0.158065
 -----------------------------------------------
    1   -1479.5894574514      5.06e-04  Roothaan Step
 ---------------------------------------
  Cycle       Energy         DIIS error
 ---------------------------------------
         Merz-Kollman ESP Net Atomic Charges

     Atom                 Charge (a.u.)
  ----------------------------------------
      1 C                     0.204953
      2 S                     1.138443
      3 O                    -0.708558
      4 O                    -0.653064
      5 N                    -1.033098
      6 H                     0.386500
      7 N                    -0.624969
      8 C                     0.588999
      9 C                    -0.136436
     10 S                    -0.042043
     11 C                    -0.372963
     12 C                    -0.300177
     13 C                     0.324429
     14 C                    -0.312260
     15 O                    -0.433344
     16 C                     0.458095
     17 C                    -0.584687
     18 H                     0.223160
     19 H                     0.208722
     20 H                     0.206858
     21 H                    -0.001641
     22 H                    -0.003454
     23 H                     0.162317
     24 H                     0.142439
     25 H                     0.161780
  ----------------------------------------
  Sum of atomic charges =    -1.000000

  Related Dipole Moment =    10.3533 (X  8.0960 Y -2.2916 Z -6.0328)


 Charges (in A.U.) from Merz-Kollman fitting 
 -----------------------------------------------
 Center     Atomic                  MZ       
 Number     Number                  Charge
 -----------------------------------------------
    1          6                    0.204953
    2         16                    1.138443
    3          8                   -0.708558
    4          8                   -0.653064
    5          7                   -1.033098
    6          1                    0.386500
    7          7                   -0.624969
    8          6                    0.588999
    9          6                   -0.136436
   10         16                   -0.042043
   11          6                   -0.372963
   12          6                   -0.300177
   13          6                    0.324429
   14          6                   -0.312260
   15          8                   -0.433344
   16          6                    0.458095
   17          6                   -0.584687
   18          1                    0.223160
   19          1                    0.208722
   20          1                    0.206858
   21          1                   -0.001641
   22          1                   -0.003454
   23          1                    0.162317
   24          1                    0.142439
   25          1                    0.161780
 -----------------------------------------------
    1   -1479.5788398409      2.78e-04  
         Merz-Kollman ESP Net Atomic Charges

     Atom                 Charge (a.u.)
  ----------------------------------------
      1 C                     0.135211
      2 S                     1.143321
      3 O                    -0.709875
      4 O                    -0.652840
      5 N                    -1.030775
      6 H                     0.388838
      7 N                    -0.611663
      8 C                     0.569062
      9 C                    -0.105978
     10 S                    -0.018917
     11 C                    -0.377043
     12 C                    -0.293708
     13 C                     0.338022
     14 C                    -0.308882
     15 O                    -0.439418
     16 C                     0.465825
     17 C                    -0.584757
     18 H                     0.223933
     19 H                     0.206730
     20 H                     0.206754
     21 H                    -0.003806
     22 H                    -0.005332
     23 H                     0.161712
     24 H                     0.142414
     25 H                     0.161173
  ----------------------------------------
  Sum of atomic charges =    -1.000000

  Related Dipole Moment =    10.8575 (X  8.4256 Y -2.1855 Z -6.4899)


 Charges (in A.U.) from Merz-Kollman fitting 
 -----------------------------------------------
 Center     Atomic                  MZ       
 Number     Number                  Charge
 -----------------------------------------------
    1          6                    0.135211
    2         16                    1.143321
    3          8                   -0.709875
    4          8                   -0.652840
    5          7                   -1.030775
    6          1                    0.388838
    7          7                   -0.611663
    8          6                    0.569062
    9          6                   -0.105978
   10         16                   -0.018917
   11          6                   -0.377043
   12          6                   -0.293708
   13          6                    0.338022
   14          6                   -0.308882
   15          8                   -0.439418
   16          6                    0.465825
   17          6                   -0.584757
   18          1                    0.223933
   19          1                    0.206730
   20          1                    0.206754
   21          1                   -0.003806
   22          1                   -0.005332
   23          1                    0.161712
   24          1                    0.142414
   25          1                    0.161173
 -----------------------------------------------
    2   -1479.5773763346      2.56e-04  
         Merz-Kollman ESP Net Atomic Charges

     Atom                 Charge (a.u.)
  ----------------------------------------
      1 C                     0.149900
      2 S                     1.144699
      3 O                    -0.712502
      4 O                    -0.655986
      5 N                    -1.037932
      6 H                     0.390103
      7 N                    -0.612654
      8 C                     0.569352
      9 C                    -0.112935
     10 S                    -0.022517
     11 C                    -0.374078
     12 C                    -0.295083
     13 C                     0.339335
     14 C                    -0.312324
     15 O                    -0.438118
     16 C                     0.466023
     17 C                    -0.585155
     18 H                     0.224374
     19 H                     0.208317
     20 H                     0.208505
     21 H                    -0.003272
     22 H                    -0.004870
     23 H                     0.162070
     24 H                     0.143229
     25 H                     0.161517
  ----------------------------------------
  Sum of atomic charges =    -1.000000

  Related Dipole Moment =    10.9686 (X  8.4047 Y -2.2036 Z -6.6943)


 Charges (in A.U.) from Merz-Kollman fitting 
 -----------------------------------------------
 Center     Atomic                  MZ       
 Number     Number                  Charge
 -----------------------------------------------
    1          6                    0.149900
    2         16                    1.144699
    3          8                   -0.712502
    4          8                   -0.655986
    5          7                   -1.037932
    6          1                    0.390103
    7          7                   -0.612654
    8          6                    0.569352
    9          6                   -0.112935
   10         16                   -0.022517
   11          6                   -0.374078
   12          6                   -0.295083
   13          6                    0.339335
   14          6                   -0.312324
   15          8                   -0.438118
   16          6                    0.466023
   17          6                   -0.585155
   18          1                    0.224374
   19          1                    0.208317
   20          1                    0.208505
   21          1                   -0.003272
   22          1                   -0.004870
   23          1                    0.162070
   24          1                    0.143229
   25          1                    0.161517
 -----------------------------------------------
    3   -1479.5756971104      5.74e-05  
         Merz-Kollman ESP Net Atomic Charges

     Atom                 Charge (a.u.)
  ----------------------------------------
      1 C                     0.144971
      2 S                     1.146565
      3 O                    -0.713810
      4 O                    -0.655854
      5 N                    -1.037770
      6 H                     0.389214
      7 N                    -0.611066
      8 C                     0.568287
      9 C                    -0.108857
     10 S                    -0.022582
     11 C                    -0.374869
     12 C                    -0.295455
     13 C                     0.340587
     14 C                    -0.313589
     15 O                    -0.438401
     16 C                     0.464059
     17 C                    -0.585401
     18 H                     0.224817
     19 H                     0.208799
     20 H                     0.208987
     21 H                    -0.002527
     22 H                    -0.004024
     23 H                     0.162355
     24 H                     0.143775
     25 H                     0.161788
  ----------------------------------------
  Sum of atomic charges =    -1.000000

  Related Dipole Moment =    11.0323 (X  8.4390 Y -2.1928 Z -6.7591)


 Charges (in A.U.) from Merz-Kollman fitting 
 -----------------------------------------------
 Center     Atomic                  MZ       
 Number     Number                  Charge
 -----------------------------------------------
    1          6                    0.144971
    2         16                    1.146565
    3          8                   -0.713810
    4          8                   -0.655854
    5          7                   -1.037770
    6          1                    0.389214
    7          7                   -0.611066
    8          6                    0.568287
    9          6                   -0.108857
   10         16                   -0.022582
   11          6                   -0.374869
   12          6                   -0.295455
   13          6                    0.340587
   14          6                   -0.313589
   15          8                   -0.438401
   16          6                    0.464059
   17          6                   -0.585401
   18          1                    0.224817
   19          1                    0.208799
   20          1                    0.208987
   21          1                   -0.002527
   22          1                   -0.004024
   23          1                    0.162355
   24          1                    0.143775
   25          1                    0.161788
 -----------------------------------------------
    4   -1479.5747103229      3.37e-05  
    5   -1479.5743364111      6.16e-06  Convergence criterion met
 ---------------------------------------
 SCF time:   CPU 123.92s  wall 9.00s 
(0)  E-EN(g) gas-phase elect-nuc energy                -1479.589457185 a.u.
(1)  E-EN(liq) elect-nuc energy of solute              -1479.574336411 a.u.
(2)  G-P(liq) polarization free energy of solvation           -78.9917 kcal/mol
(3)  G-ENP(liq) elect-nuc-pol free energy of system    -1479.700217642 a.u.
(4)  G-CDS(liq) cavity-dispersion-solvent structure 
     free energy                                                1.0980 kcal/mol
(5)  G-P-CDS(liq) = G-P(liq) + G-CDS(liq) = (2) + (4)         -77.8936 kcal/mol
(6)  G-S(liq) free energy of system = (1) + (5)        -1479.698467830 a.u.
(7)  DeltaE-EN(liq) elect-nuc reorganization
     energy of solute molecule (7) = (1) - (0)                  9.4884 kcal/mol
(8)  DeltaG-ENP(liq) elect-nuc-pol free energy
     of solvation (8) = (3) - (0)                             -69.5032 kcal/mol
(9)  DeltaG-S(liq) free energy of  solvation
     (9) = (6) - (0)                                          -68.4052 kcal/mol
 SCF   energy in the final basis set =    -1479.6984678304
 Total energy in the final basis set =    -1479.6984678304
 
 --------------------------------------------------------------
 
                    Orbital Energies (a.u.)
 --------------------------------------------------------------
 
 Alpha MOs
 -- Occupied --
-90.1536 -89.9791 -19.6874 -19.6360 -19.6357 -14.7960 -14.7402 -10.6476
-10.6364 -10.6114 -10.6086 -10.6042 -10.5789 -10.5787 -10.5705 -10.5441
 -8.4615  -8.3220  -6.3838  -6.3831  -6.3825  -6.2418  -6.2396  -6.2378
 -1.2270  -1.2033  -1.1108  -1.1019  -0.9855  -0.9742  -0.9203  -0.8854
 -0.8497  -0.8396  -0.7639  -0.7275  -0.7009  -0.6841  -0.6571  -0.6131
 -0.6060  -0.5844  -0.5736  -0.5700  -0.5450  -0.5349  -0.5256  -0.5205
 -0.4937  -0.4856  -0.4775  -0.4675  -0.4513  -0.4392  -0.4289  -0.4263
 -0.4099  -0.4077  -0.3923  -0.3906  -0.3837  -0.3808  -0.3629  -0.3428
 -0.3232  -0.3056  -0.2816
 -- Virtual --
 -0.0251  -0.0236  -0.0187  -0.0071  -0.0021   0.0003   0.0036   0.0084
  0.0168   0.0298   0.0328   0.0350   0.0412   0.0494   0.0559   0.0587
  0.0594   0.0641   0.0732   0.0804   0.0842   0.0866   0.0902   0.0919
  0.0988   0.1015   0.1094   0.1121   0.1206   0.1242   0.1292   0.1321
  0.1361   0.1444   0.1476   0.1547   0.1587   0.1680   0.1695   0.1725
  0.1753   0.1794   0.1850   0.1908   0.1990   0.2013   0.2080   0.2108
  0.2138   0.2152   0.2233   0.2304   0.2341   0.2391   0.2418   0.2425
  0.2469   0.2477   0.2566   0.2616   0.2693   0.2740   0.2762   0.2815
  0.2911   0.2950   0.2981   0.2991   0.2999   0.3041   0.3110   0.3126
  0.3242   0.3282   0.3313   0.3348   0.3373   0.3456   0.3569   0.3701
  0.3765   0.3899   0.3989   0.4062   0.4132   0.4215   0.4329   0.4402
  0.4601   0.4748   0.5179   0.5268   0.5380   0.5844   0.6090   0.6112
  0.6246   0.6548   0.6747   0.6779   0.6859   0.7010   0.7043   0.7127
  0.7223   0.7282   0.7287   0.7417   0.7500   0.7554   0.7601   0.7813
  0.7847   0.7924   0.8049   0.8134   0.8223   0.8441   0.8532   0.8964
  0.9127   0.9360   0.9523   0.9555   0.9705   0.9800   0.9950   1.0018
  1.0074   1.0166   1.0218   1.0380   1.0426   1.0520   1.0538   1.0718
  1.0812   1.0944   1.1025   1.1176   1.1301   1.1465   1.1577   1.1591
  1.1784   1.1870   1.1887   1.2053   1.2168   1.2339   1.2463   1.2580
  1.2676   1.2749   1.2814   1.2875   1.3117   1.3261   1.3361   1.3622
  1.3699   1.3802   1.3817   1.3936   1.4078   1.4114   1.4177   1.4314
  1.4640   1.4653   1.4889   1.5006   1.5118   1.5257   1.5528   1.5600
  1.5753   1.6044   1.6205   1.6539   1.6998   1.7238   1.7604   1.7740
  1.7918   1.8110   1.8174   1.8523   1.8653   1.8698   1.8836   1.9113
  1.9196   1.9344   1.9408   1.9489   1.9710   2.0025   2.0059   2.0214
  2.0299   2.0324   2.0556   2.0591   2.0924   2.1265   2.1552   2.1581
  2.1695   2.1778   2.1921   2.2113   2.2261   2.2596   2.2772   2.2952
  2.3110   2.3290   2.3380   2.3408   2.3995   2.4087   2.4130   2.4514
  2.4540   2.4801   2.5161   2.5506   2.5787   2.6165   2.6476   2.6707
  2.6903   2.7418   2.7664   2.8251   2.8349   2.8685   2.8794   2.8884
  2.9563   3.0021   3.1005   3.1259   3.2384   3.4201   3.9743   4.0065
  4.0767   4.1624   4.2634   4.2780   4.3013   4.3062   4.3543   4.3647
  4.3872   4.4422   4.4979   4.5634   4.6201   4.8374
 --------------------------------------------------------------
 
          Ground-State Mulliken Net Atomic Charges

     Atom                 Charge (a.u.)
  ----------------------------------------
      1 C                    -2.738570
      2 S                     0.609934
      3 O                    -0.714973
      4 O                    -0.806505
      5 N                    -0.948179
      6 H                     0.410578
      7 N                    -0.241263
      8 C                    -2.289924
      9 C                     0.512240
     10 S                     0.858663
     11 C                     1.034450
     12 C                    -0.399996
     13 C                     1.795993
     14 C                     0.668409
     15 O                    -0.455721
     16 C                     0.421673
     17 C                    -0.733119
     18 H                     0.274545
     19 H                     0.274230
     20 H                     0.295560
     21 H                     0.237706
     22 H                     0.236591
     23 H                     0.227542
     24 H                     0.242926
     25 H                     0.227183
  ----------------------------------------
  Sum of atomic charges =    -1.000027

         Merz-Kollman ESP Net Atomic Charges

     Atom                 Charge (a.u.)
  ----------------------------------------
      1 C                     0.145118
      2 S                     1.149083
      3 O                    -0.714482
      4 O                    -0.656653
      5 N                    -1.038876
      6 H                     0.389174
      7 N                    -0.611122
      8 C                     0.567856
      9 C                    -0.108993
     10 S                    -0.022386
     11 C                    -0.374829
     12 C                    -0.295440
     13 C                     0.341017
     14 C                    -0.313782
     15 O                    -0.438291
     16 C                     0.463657
     17 C                    -0.585479
     18 H                     0.224842
     19 H                     0.208819
     20 H                     0.208953
     21 H                    -0.002400
     22 H                    -0.003898
     23 H                     0.162417
     24 H                     0.143843
     25 H                     0.161851
  ----------------------------------------
  Sum of atomic charges =    -1.000000

  Related Dipole Moment =    11.0421 (X  8.4427 Y -2.1952 Z -6.7698)

 -----------------------------------------------------------------
                    Cartesian Multipole Moments
 -----------------------------------------------------------------
    Charge (ESU x 10^10)
                -4.8033
    Dipole Moment (Debye)
         X       8.4591      Y      -2.2066      Z      -6.8203
       Tot      11.0879
    Quadrupole Moments (Debye-Ang)
        XX    -116.4409     XY       4.7096     YY    -124.1397
        XZ      -9.9521     YZ      -8.6389     ZZ     -95.4054
    Octopole Moments (Debye-Ang^2)
       XXX     217.3311    XXY     -81.9959    XYY      94.7052
       YYY    -302.1740    XXZ     294.2106    XYZ     -17.6860
       YYZ     344.1418    XZZ     169.1391    YZZ     -62.7491
       ZZZ     894.7846
    Hexadecapole Moments (Debye-Ang^3)
      XXXX   -1510.8743   XXXY      57.4754   XXYY    -423.2825
      XYYY     130.4016   YYYY    -844.9356   XXXZ     147.7454
      XXYZ     307.6006   XYYZ      11.8443   YYYZ    1076.4735
      XXZZ   -2153.6900   XYZZ     187.0789   YYZZ   -2375.3421
      XZZZ    -561.8943   YZZZ     815.5967   ZZZZ  -12300.9908
 -----------------------------------------------------------------
 Total job time:  20.72s(wall), 246.08s(cpu) 
 Wed May 25 16:17:54 2022

        *************************************************************
        *                                                           *
        *  Thank you very much for using Q-Chem.  Have a nice day.  *
        *                                                           *
        *************************************************************


