                  Welcome to Q-Chem
     A Quantum Leap Into The Future Of Chemistry


 Q-Chem 5.4 (devel), Q-Chem, Inc., Pleasanton, CA (2021)

 E. Epifanovsky,  A. T. B. Gilbert,  Xintian Feng,  Joonho Lee,  Yuezhi Mao,  
 N. Mardirossian,  P. Pokhilko,  A. White,  M. Wormit,  M. P. Coons,  
 A. L. Dempwolff,  Zhengting Gan,  D. Hait,  P. R. Horn,  L. D. Jacobson,  
 I. Kaliman,  J. Kussmann,  A. W. Lange,  Ka Un Lao,  D. S. Levine,  Jie Liu,  
 S. C. McKenzie,  A. F. Morrison,  K. Nanda,  F. Plasser,  D. R. Rehn,  
 M. L. Vidal,  Zhi-Qiang You,  Ying Zhu,  B. Alam,  B. Albrecht,  
 A. Aldossary,  E. Alguire,  J. H. Andersen,  D. Barton,  K. Begam,  A. Behn,  
 Y. A. Bernard,  E. J. Berquist,  H. Burton,  A. Carreras,  K. Carter-Fenk,  
 R. Chakraborty,  A. D. Chien,  K. D. Closser,  V. Cofer-Shabica,  
 S. Dasgupta,  Jia Deng,  M. de Wergifosse,  M. Diedenhofen,  Hainam Do,  
 S. Ehlert,  Po-Tung Fang,  S. Fatehi,  Qingguo Feng,  T. Friedhoff,  
 J. Gayvert,  Qinghui Ge,  G. Gidofalvi,  M. Goldey,  J. Gomes,  
 C. Gonzalez-Espinoza,  S. Gulania,  A. Gunina,  M. W. D. Hanson-Heine,  
 P. H. P. Harbach,  A. W. Hauser,  M. F. Herbst,  M. Hernandez Vera,  
 M. Hodecker,  Z. C. Holden,  S. Houck,  Xunkun Huang,  Kerwin Hui,  
 B. C. Huynh,  M. Ivanov,  Hyunjun Ji,  Hanjie Jiang,  B. Kaduk,  S. Kaehler,  
 K. Khistyaev,  Jaehoon Kim,  P. Klunzinger,  Z. Koczor-Benda,  
 Joong Hoon Koh,  D. Kosenkov,  L. Koulias,  T. Kowalczyk,  C. M. Krauter,  
 K. Kue,  A. Kunitsa,  T. Kus,  A. Landau,  K. V. Lawler,  D. Lefrancois,  
 S. Lehtola,  Rain Li,  Yi-Pei Li,  Jiashu Liang,  M. Liebenthal,  
 Hung-Hsuan Lin,  You-Sheng Lin,  Fenglai Liu,  Kuan-Yu Liu,  
 M. Loipersberger,  A. Luenser,  A. Manjanath,  P. Manohar,  E. Mansoor,  
 S. F. Manzer,  Shan-Ping Mao,  A. V. Marenich,  T. Markovich,  S. Mason,  
 S. A. Maurer,  P. F. McLaughlin,  M. F. S. J. Menger,  J.-M. Mewes,  
 S. A. Mewes,  P. Morgante,  J. W. Mullinax,  K. J. Oosterbaan,  G. Paran,  
 Alexander C. Paul,  Suranjan K. Paul,  F. Pavosevic,  Zheng Pei,  S. Prager,  
 E. I. Proynov,  E. Ramos,  B. Rana,  A. E. Rask,  A. Rettig,  R. M. Richard,  
 F. Rob,  E. Rossomme,  T. Scheele,  M. Scheurer,  M. Schneider,  
 N. Sergueev,  S. M. Sharada,  W. Skomorowski,  D. W. Small,  C. J. Stein,  
 Yu-Chuan Su,  E. J. Sundstrom,  Zhen Tao,  J. Thirman,  T. Tsuchimochi,  
 N. M. Tubman,  S. P. Veccham,  O. Vydrov,  J. Wenzel,  J. Witte,  A. Yamada,  
 Kun Yao,  S. Yeganeh,  S. R. Yost,  A. Zech,  Igor Ying Zhang,  Xing Zhang,  
 Yu Zhang,  D. Zuev,  A. Aspuru-Guzik,  A. T. Bell,  N. A. Besley,  
 K. B. Bravaya,  B. R. Brooks,  D. Casanova,  Jeng-Da Chai,  S. Coriani,  
 C. J. Cramer,  A. E. DePrince, III,  R. A. DiStasio Jr.,  A. Dreuw,  
 B. D. Dunietz,  T. R. Furlani,  W. A. Goddard III,  S. Grimme,  
 S. Hammes-Schiffer,  T. Head-Gordon,  W. J. Hehre,  Chao-Ping Hsu,  
 T.-C. Jagau,  Yousung Jung,  A. Klamt,  Jing Kong,  D. S. Lambrecht,  
 WanZhen Liang,  N. J. Mayhall,  C. W. McCurdy,  J. B. Neaton,  
 C. Ochsenfeld,  J. A. Parkhill,  R. Peverati,  V. A. Rassolov,  Yihan Shao,  
 L. V. Slipchenko,  T. Stauch,  R. P. Steele,  J. E. Subotnik,  
 A. J. W. Thom,  A. Tkatchenko,  D. G. Truhlar,  T. Van Voorhis,  
 T. A. Wesolowski,  K. B. Whaley,  H. L. Woodcock III,  P. M. Zimmerman,  
 S. Faraji,  P. M. W. Gill,  M. Head-Gordon,  J. M. Herbert,  A. I. Krylov

 Additional authors for Version 5.4.1: 
 S. Kotaru,  Shaozhi Li,  Xiangyuan Li,  F. Matz,  A. Molle,  Haisheng Ren,  
 Yingli Su,  Hung-Yi Tsai,  C. Utku,  Fang Wang

 Contributors to earlier versions of Q-Chem not listed above: 
 R. D. Adamson,  B. Austin,  R. Baer,  J. Baker,  G. J. O. Beran,  
 K. Brandhorst,  S. T. Brown,  E. F. C. Byrd,  A. K. Chakraborty,  
 G. K. L. Chan,  Chun-Min Chang,  Yunqing Chen,  C.-L. Cheng,  
 Siu Hung Chien,  D. M. Chipman,  D. L. Crittenden,  H. Dachsel,  
 R. J. Doerksen,  A. D. Dutoi,  R. G. Edgar,  J. Fosso-Tande,  
 L. Fusti-Molnar,  D. Ghosh,  A. Ghysels,  A. Golubeva-Zadorozhnaya,  
 J. Gonthier,  M. S. Gordon,  S. R. Gwaltney,  G. Hawkins,  J. E. Herr,  
 A. Heyden,  S. Hirata,  E. G. Hohenstein,  G. Kedziora,  F. J. Keil,  
 C. Kelley,  Jihan Kim,  R. A. King,  R. Z. Khaliullin,  P. P. Korambath,  
 W. Kurlancheek,  A. Laurent,  A. M. Lee,  M. S. Lee,  S. V. Levchenko,  
 Ching Yeh Lin,  D. Liotard,  E. Livshits,  R. C. Lochan,  I. Lotan,  
 L. A. Martinez-Martinez,  P. E. Maslen,  N. Nair,  D. P. O'Neill,  
 D. Neuhauser,  E. Neuscamman,  C. M. Oana,  R. Olivares-Amaya,  R. Olson,  
 T. M. Perrine,  B. Peters,  P. A. Pieniazek,  A. Prociuk,  Y. M. Rhee,  
 J. Ritchie,  M. A. Rohrdanz,  E. Rosta,  N. J. Russ,  H. F. Schaefer III,  
 M. W. Schmidt,  N. E. Schultz,  S. Sharma,  N. Shenvi,  C. D. Sherrill,  
 A. C. Simmonett,  A. Sodt,  T. Stein,  D. Stuck,  K. S. Thanthiriwatte,  
 V. Vanovschi,  L. Vogt,  Tao Wang,  A. Warshel,  M. A. Watson,  
 C. F. Williams,  Q. Wu,  X. Xu,  Jun Yang,  W. Zhang,  Yan Zhao

 Please cite Q-Chem as follows:
 Y. Shao et al., Mol. Phys. 113, 184-215 (2015)
 DOI: 10.1080/00268976.2014.952696

 Q-Chem 5.4.1 for Intel X86 EM64T Linux

 Parts of Q-Chem use Armadillo 9.800.1 (Horizon Scraper).
 http://arma.sourceforge.net/

 Q-Chem begins on Thu May 26 10:29:07 2022  

 Host: gadi-cpu-clx-0360.gadi.nci.org.au
0

     Scratch files written to /jobfs/41312668.gadi-pbs/qchem1639375//
 Processing $rem in /apps/qchem/5.4.1/config/preferences:
 Processing $rem in /home/561/yj5695/.qchemrc:
 Symmetry turned off for PCM/SM12/SMD calculation
 Method-specific promolecule density matrix will be built for SM12 calculation

 Checking the input file for inconsistencies... 	...done.

--------------------------------------------------------------
User input:
--------------------------------------------------------------
$molecule
-1  1
C -1.222474677  0.6145878307 -0.9287799129
C -2.4162019072  0.6183376641 -1.6731739704
Cl -3.9742187372  0.3316589495 -0.9329890976
C -2.4582142864  0.8249399149 -3.0460292906
H -3.4058353582  0.8253952143 -3.5733522417
C -1.2614180456  1.0236749609 -3.717815261
Cl -1.2809874328  1.2908982231 -5.4367002878
C -0.0516779123  1.0025800189 -3.0467401644
H  0.882014614  1.1447925032 -3.5797862878
C -0.0420492785  0.7937153431 -1.6667674469
Cl  1.5602122547  0.7679783083 -0.9760332314
S -1.3255916598  0.3540248373  0.8982842541
O  0.0502300382  0.4987986467  1.4110850689
O -2.2296374829  1.4628195827  1.307733334
N -1.8319972282 -1.090269758  1.1771876888
H -2.8378419007 -1.1301902398  1.0056258468
$end

$rem
jobtype sp
exchange M062X
basis 6-31+G*
SMX_GAS_PHASE = TRUE
solvent_method sm12
$end

$smx
solvent water
charges mk
$end
--------------------------------------------------------------
 ----------------------------------------------------------------
             Standard Nuclear Orientation (Angstroms)
    I     Atom           X                Y                Z
 ----------------------------------------------------------------
    1      C      -1.2224746770     0.6145878307    -0.9287799129
    2      C      -2.4162019072     0.6183376641    -1.6731739704
    3      Cl     -3.9742187372     0.3316589495    -0.9329890976
    4      C      -2.4582142864     0.8249399149    -3.0460292906
    5      H      -3.4058353582     0.8253952143    -3.5733522417
    6      C      -1.2614180456     1.0236749609    -3.7178152610
    7      Cl     -1.2809874328     1.2908982231    -5.4367002878
    8      C      -0.0516779123     1.0025800189    -3.0467401644
    9      H       0.8820146140     1.1447925032    -3.5797862878
   10      C      -0.0420492785     0.7937153431    -1.6667674469
   11      Cl      1.5602122547     0.7679783083    -0.9760332314
   12      S      -1.3255916598     0.3540248373     0.8982842541
   13      O       0.0502300382     0.4987986467     1.4110850689
   14      O      -2.2296374829     1.4628195827     1.3077333340
   15      N      -1.8319972282    -1.0902697580     1.1771876888
   16      H      -2.8378419007    -1.1301902398     1.0056258468
 ----------------------------------------------------------------
 Nuclear Repulsion Energy =        1257.94686327 hartrees
 There are       65 alpha and       65 beta electrons
 Requested basis set is 6-31+G(d)
 There are 75 shells and 269 basis functions

 Total QAlloc Memory Limit   2000 MB
 Mega-Array Size       188 MB
 MEM_STATIC part       192 MB
 A cutoff of  1.0D-08 yielded   2254 shell pairs
 There are     30500 function pairs
 Smallest overlap matrix eigenvalue = 8.26E-07

 Q-Chem warning in module stvman/mkSTV.C, line 323:

 Overlap eigenvalue is smaller than square root of threshold
 Use THRESH >= 12 to get rid of this warning

 Linear dependence detected in AO basis
 Tighter screening thresholds may be required for diffuse basis sets
 Use S2THRESH > 14 and THRESH = 14 in case of SCF convergence issues
 Number of orthogonalized atomic orbitals = 268
 Maximum deviation from orthogonality = 1.868E-10

 Scale SEOQF with 1.000000e-01/1.000000e-01/1.000000e-02

 Standard Electronic Orientation quadrupole field applied
 Nucleus-field energy     =     0.0000000172 hartrees
 ================ Generating on-the-fly Promolecule Density  ================
Attempting to make child job directory: /jobfs/41312668.gadi-pbs/qchem1639375//Frg1/
Attempting to make child job directory: /jobfs/41312668.gadi-pbs/qchem1639375//Frg2/
Attempting to make child job directory: /jobfs/41312668.gadi-pbs/qchem1639375//Frg3/
Attempting to make child job directory: /jobfs/41312668.gadi-pbs/qchem1639375//Frg4/
Attempting to make child job directory: /jobfs/41312668.gadi-pbs/qchem1639375//Frg5/
Attempting to make child job directory: /jobfs/41312668.gadi-pbs/qchem1639375//Frg6/
Creating input file /jobfs/41312668.gadi-pbs/qchem1639375/Frg1.input
using default PutDataFrgm: nothing
calling putenv with: QCSCRATCH=/jobfs/41312668.gadi-pbs/qchem1639375/ 
Spawning Job For Fragment 0
Done Job For Fragment 0
calling putenv with: QCSCRATCH=/jobfs/41312668.gadi-pbs 
calling putenv with: QCTHREADS=16 
Creating input file /jobfs/41312668.gadi-pbs/qchem1639375/Frg2.input
using default PutDataFrgm: nothing
calling putenv with: QCSCRATCH=/jobfs/41312668.gadi-pbs/qchem1639375/ 
Spawning Job For Fragment 1
Done Job For Fragment 1
calling putenv with: QCSCRATCH=/jobfs/41312668.gadi-pbs 
calling putenv with: QCTHREADS=16 
Creating input file /jobfs/41312668.gadi-pbs/qchem1639375/Frg3.input
using default PutDataFrgm: nothing
calling putenv with: QCSCRATCH=/jobfs/41312668.gadi-pbs/qchem1639375/ 
Spawning Job For Fragment 2
Done Job For Fragment 2
calling putenv with: QCSCRATCH=/jobfs/41312668.gadi-pbs 
calling putenv with: QCTHREADS=16 
Creating input file /jobfs/41312668.gadi-pbs/qchem1639375/Frg4.input
using default PutDataFrgm: nothing
calling putenv with: QCSCRATCH=/jobfs/41312668.gadi-pbs/qchem1639375/ 
Spawning Job For Fragment 3
Done Job For Fragment 3
calling putenv with: QCSCRATCH=/jobfs/41312668.gadi-pbs 
calling putenv with: QCTHREADS=16 
Creating input file /jobfs/41312668.gadi-pbs/qchem1639375/Frg5.input
using default PutDataFrgm: nothing
calling putenv with: QCSCRATCH=/jobfs/41312668.gadi-pbs/qchem1639375/ 
Spawning Job For Fragment 4
Done Job For Fragment 4
calling putenv with: QCSCRATCH=/jobfs/41312668.gadi-pbs 
calling putenv with: QCTHREADS=16 
Creating input file /jobfs/41312668.gadi-pbs/qchem1639375/Frg6.input
using default PutDataFrgm: nothing
calling putenv with: QCSCRATCH=/jobfs/41312668.gadi-pbs/qchem1639375/ 
Spawning Job For Fragment 5
Done Job For Fragment 5
calling putenv with: QCSCRATCH=/jobfs/41312668.gadi-pbs 
calling putenv with: QCTHREADS=16 
 Time for running child jobs:  CPU 2.34 s  wall 2.52 s
 ============= Method Specific Promolecule Density Constructed =============
 Guess from superposition of atomic densities
 Warning:  Energy on first SCF cycle will be non-variational
 SAD guess density has 129.000000 electrons

 -----------------------------------------------------------------------
  General SCF calculation program by
  Eric Jon Sundstrom, Paul Horn, Yuezhi Mao, Dmitri Zuev, Alec White,
  David Stuck, Shaama M.S., Shane Yost, Joonho Lee, David Small,
  Daniel Levine, Susi Lehtola, Hugh Burton, Evgeny Epifanovsky,
  Bang C. Huynh
 -----------------------------------------------------------------------
 Exchange:     0.5400 Hartree-Fock + 1.0000 M06-2X
 Correlation:  1.0000 M06-2X
 Using SG-3 standard quadrature grid
 using 16 threads for integral computing
 -------------------------------------------------------
 OpenMP Integral computing Module                
 Release: version 1.0, May 2013, Q-Chem Inc. Pittsburgh 
 -------------------------------------------------------
 A restricted SCF calculation will be
 performed using DIIS
 SCF converges when DIIS error is below 1.0e-05
 ---------------------------------------
  Cycle       Energy         DIIS error
 ---------------------------------------
    1   -2217.7472678504      4.35e-02  
    2   -2213.8094176829      5.95e-03  
    3   -2213.6206077729      8.16e-03  
    4   -2214.0818658029      9.35e-04  
    5   -2214.0881559850      4.49e-04  
    6   -2214.0899865632      1.12e-04  
    7   -2214.0900967650      3.64e-05  
    8   -2214.0901097138      7.76e-06  Convergence criterion met
 ---------------------------------------
 SCF time:   CPU 104.78s  wall 6.00s 
 SCF   energy in the final basis set =    -2214.0901097138
 Total energy in the final basis set =    -2214.0901097138
 Exchange:     0.5400 Hartree-Fock + 1.0000 M06-2X
 Correlation:  1.0000 M06-2X
 Using SG-3 standard quadrature grid
 
 SM12 calculation using Merz-Singh-Kollman charges
 Citation of the SM12 model:
 Marenich, A.V.; Cramer, C.J.; Truhlar, D.G.
 J. Chem. Theory Comput. 2013, 9, 609-612.
 iSolventCode=           1
 Solvent: water                                                           
 
  Building new vdw surfaces
         Merz-Kollman ESP Net Atomic Charges

     Atom                 Charge (a.u.)
  ----------------------------------------
      1 C                     0.230212
      2 C                    -0.228795
      3 Cl                   -0.069141
      4 C                     0.042141
      5 H                     0.101298
      6 C                    -0.043198
      7 Cl                   -0.138733
      8 C                     0.009893
      9 H                     0.097750
     10 C                    -0.167780
     11 Cl                   -0.070338
     12 S                     1.033551
     13 O                    -0.560456
     14 O                    -0.639270
     15 N                    -0.972935
     16 H                     0.375802
  ----------------------------------------
  Sum of atomic charges =    -1.000000

  Related Dipole Moment =     6.7665 (X  5.0715 Y -1.9500 Z -4.0326)


 Charges (in A.U.) from Merz-Kollman fitting 
 -----------------------------------------------
 Center     Atomic                  MZ       
 Number     Number                  Charge
 -----------------------------------------------
    1          6                    0.230212
    2          6                   -0.228795
    3         17                   -0.069141
    4          6                    0.042141
    5          1                    0.101298
    6          6                   -0.043198
    7         17                   -0.138733
    8          6                    0.009893
    9          1                    0.097750
   10          6                   -0.167780
   11         17                   -0.070338
   12         16                    1.033551
   13          8                   -0.560456
   14          8                   -0.639270
   15          7                   -0.972935
   16          1                    0.375802
 -----------------------------------------------
 A restricted SCF calculation will be
 performed using Roothaan-Hall, DIIS
 SCF converges when DIIS error is below 1.0e-05
 ---------------------------------------
  Cycle       Energy         DIIS error
 ---------------------------------------
         Merz-Kollman ESP Net Atomic Charges

     Atom                 Charge (a.u.)
  ----------------------------------------
      1 C                     0.213570
      2 C                    -0.267871
      3 Cl                   -0.053112
      4 C                     0.101953
      5 H                     0.114689
      6 C                    -0.053649
      7 Cl                   -0.100809
      8 C                     0.064620
      9 H                     0.111582
     10 C                    -0.204655
     11 Cl                   -0.069334
     12 S                     1.059286
     13 O                    -0.604542
     14 O                    -0.677760
     15 N                    -1.027727
     16 H                     0.393760
  ----------------------------------------
  Sum of atomic charges =    -1.000000

  Related Dipole Moment =     8.6258 (X  4.7565 Y -1.5559 Z -7.0256)


 Charges (in A.U.) from Merz-Kollman fitting 
 -----------------------------------------------
 Center     Atomic                  MZ       
 Number     Number                  Charge
 -----------------------------------------------
    1          6                    0.213570
    2          6                   -0.267871
    3         17                   -0.053112
    4          6                    0.101953
    5          1                    0.114689
    6          6                   -0.053649
    7         17                   -0.100809
    8          6                    0.064620
    9          1                    0.111582
   10          6                   -0.204655
   11         17                   -0.069334
   12         16                    1.059286
   13          8                   -0.604542
   14          8                   -0.677760
   15          7                   -1.027727
   16          1                    0.393760
 -----------------------------------------------
    1   -2214.0901108732      5.15e-04  Roothaan Step
 ---------------------------------------
  Cycle       Energy         DIIS error
 ---------------------------------------
         Merz-Kollman ESP Net Atomic Charges

     Atom                 Charge (a.u.)
  ----------------------------------------
      1 C                     0.272923
      2 C                    -0.243886
      3 Cl                   -0.062970
      4 C                     0.061166
      5 H                     0.125387
      6 C                    -0.095734
      7 Cl                   -0.074201
      8 C                     0.028188
      9 H                     0.121153
     10 C                    -0.181344
     11 Cl                   -0.078159
     12 S                     1.079306
     13 O                    -0.608464
     14 O                    -0.691521
     15 N                    -1.039760
     16 H                     0.387915
  ----------------------------------------
  Sum of atomic charges =    -1.000000

  Related Dipole Moment =     8.5744 (X  4.8989 Y -1.5301 Z -6.8688)


 Charges (in A.U.) from Merz-Kollman fitting 
 -----------------------------------------------
 Center     Atomic                  MZ       
 Number     Number                  Charge
 -----------------------------------------------
    1          6                    0.272923
    2          6                   -0.243886
    3         17                   -0.062970
    4          6                    0.061166
    5          1                    0.125387
    6          6                   -0.095734
    7         17                   -0.074201
    8          6                    0.028188
    9          1                    0.121153
   10          6                   -0.181344
   11         17                   -0.078159
   12         16                    1.079306
   13          8                   -0.608464
   14          8                   -0.691521
   15          7                   -1.039760
   16          1                    0.387915
 -----------------------------------------------
    1   -2214.0814549401      3.41e-04  
         Merz-Kollman ESP Net Atomic Charges

     Atom                 Charge (a.u.)
  ----------------------------------------
      1 C                     0.230391
      2 C                    -0.259919
      3 Cl                   -0.054896
      4 C                     0.080726
      5 H                     0.122369
      6 C                    -0.058695
      7 Cl                   -0.085760
      8 C                     0.045820
      9 H                     0.118372
     10 C                    -0.197615
     11 Cl                   -0.070787
     12 S                     1.088869
     13 O                    -0.613348
     14 O                    -0.691926
     15 N                    -1.045116
     16 H                     0.391516
  ----------------------------------------
  Sum of atomic charges =    -1.000000

  Related Dipole Moment =     8.8766 (X  4.8285 Y -1.4694 Z -7.3021)


 Charges (in A.U.) from Merz-Kollman fitting 
 -----------------------------------------------
 Center     Atomic                  MZ       
 Number     Number                  Charge
 -----------------------------------------------
    1          6                    0.230391
    2          6                   -0.259919
    3         17                   -0.054896
    4          6                    0.080726
    5          1                    0.122369
    6          6                   -0.058695
    7         17                   -0.085760
    8          6                    0.045820
    9          1                    0.118372
   10          6                   -0.197615
   11         17                   -0.070787
   12         16                    1.088869
   13          8                   -0.613348
   14          8                   -0.691926
   15          7                   -1.045116
   16          1                    0.391516
 -----------------------------------------------
    2   -2214.0818393302      3.41e-04  
         Merz-Kollman ESP Net Atomic Charges

     Atom                 Charge (a.u.)
  ----------------------------------------
      1 C                     0.238428
      2 C                    -0.254665
      3 Cl                   -0.056758
      4 C                     0.079658
      5 H                     0.123094
      6 C                    -0.071669
      7 Cl                   -0.078928
      8 C                     0.045340
      9 H                     0.119065
     10 C                    -0.193003
     11 Cl                   -0.073166
     12 S                     1.088724
     13 O                    -0.614935
     14 O                    -0.694719
     15 N                    -1.048777
     16 H                     0.392309
  ----------------------------------------
  Sum of atomic charges =    -1.000000

  Related Dipole Moment =     8.9486 (X  4.8293 Y -1.4544 Z -7.3919)


 Charges (in A.U.) from Merz-Kollman fitting 
 -----------------------------------------------
 Center     Atomic                  MZ       
 Number     Number                  Charge
 -----------------------------------------------
    1          6                    0.238428
    2          6                   -0.254665
    3         17                   -0.056758
    4          6                    0.079658
    5          1                    0.123094
    6          6                   -0.071669
    7         17                   -0.078928
    8          6                    0.045340
    9          1                    0.119065
   10          6                   -0.193003
   11         17                   -0.073166
   12         16                    1.088724
   13          8                   -0.614935
   14          8                   -0.694719
   15          7                   -1.048777
   16          1                    0.392309
 -----------------------------------------------
    3   -2214.0805675784      6.05e-05  
         Merz-Kollman ESP Net Atomic Charges

     Atom                 Charge (a.u.)
  ----------------------------------------
      1 C                     0.234416
      2 C                    -0.255461
      3 Cl                   -0.055895
      4 C                     0.078609
      5 H                     0.123518
      6 C                    -0.067085
      7 Cl                   -0.078806
      8 C                     0.044306
      9 H                     0.119433
     10 C                    -0.193837
     11 Cl                   -0.072268
     12 S                     1.090299
     13 O                    -0.614917
     14 O                    -0.694839
     15 N                    -1.049410
     16 H                     0.391938
  ----------------------------------------
  Sum of atomic charges =    -1.000000

  Related Dipole Moment =     8.9854 (X  4.8332 Y -1.4420 Z -7.4363)


 Charges (in A.U.) from Merz-Kollman fitting 
 -----------------------------------------------
 Center     Atomic                  MZ       
 Number     Number                  Charge
 -----------------------------------------------
    1          6                    0.234416
    2          6                   -0.255461
    3         17                   -0.055895
    4          6                    0.078609
    5          1                    0.123518
    6          6                   -0.067085
    7         17                   -0.078806
    8          6                    0.044306
    9          1                    0.119433
   10          6                   -0.193837
   11         17                   -0.072268
   12         16                    1.090299
   13          8                   -0.614917
   14          8                   -0.694839
   15          7                   -1.049410
   16          1                    0.391938
 -----------------------------------------------
    4   -2214.0801395194      3.62e-05  
    5   -2214.0798849231      8.42e-06  Convergence criterion met
 ---------------------------------------
 SCF time:   CPU 99.70s  wall 6.00s 
(0)  E-EN(g) gas-phase elect-nuc energy                -2214.090109714 a.u.
(1)  E-EN(liq) elect-nuc energy of solute              -2214.079884923 a.u.
(2)  G-P(liq) polarization free energy of solvation           -66.4816 kcal/mol
(3)  G-ENP(liq) elect-nuc-pol free energy of system    -2214.185830078 a.u.
(4)  G-CDS(liq) cavity-dispersion-solvent structure 
     free energy                                                2.1289 kcal/mol
(5)  G-P-CDS(liq) = G-P(liq) + G-CDS(liq) = (2) + (4)         -64.3527 kcal/mol
(6)  G-S(liq) free energy of system = (1) + (5)        -2214.182437400 a.u.
(7)  DeltaE-EN(liq) elect-nuc reorganization
     energy of solute molecule (7) = (1) - (0)                  6.4162 kcal/mol
(8)  DeltaG-ENP(liq) elect-nuc-pol free energy
     of solvation (8) = (3) - (0)                             -60.0654 kcal/mol
(9)  DeltaG-S(liq) free energy of  solvation
     (9) = (6) - (0)                                          -57.9365 kcal/mol
 SCF   energy in the final basis set =    -2214.1824373999
 Total energy in the final basis set =    -2214.1824373999
 
 --------------------------------------------------------------
 
                    Orbital Energies (a.u.)
 --------------------------------------------------------------
 
 Alpha MOs
 -- Occupied --
********-102.6929-102.6859 -90.1454 -19.6262 -19.6258 -14.7314 -10.6558
-10.6556 -10.6482 -10.6171 -10.5978 -10.5969  -9.8424  -9.8417  -9.8348
 -8.4572  -7.5666  -7.5660  -7.5602  -7.5600  -7.5594  -7.5592  -7.5590
 -7.5526  -7.5519  -6.3796  -6.3792  -6.3784  -1.2199  -1.1028  -1.0477
 -1.0003  -0.9957  -0.9756  -0.9278  -0.8657  -0.8550  -0.7346  -0.7146
 -0.6863  -0.6187  -0.5987  -0.5765  -0.5605  -0.5483  -0.5296  -0.5227
 -0.5187  -0.4851  -0.4678  -0.4547  -0.4504  -0.4374  -0.4124  -0.4040
 -0.4011  -0.3954  -0.3867  -0.3669  -0.3616  -0.3390  -0.3343  -0.3223
 -0.3040
 -- Virtual --
 -0.0249  -0.0239  -0.0221  -0.0080  -0.0012   0.0041   0.0096   0.0138
  0.0226   0.0244   0.0412   0.0460   0.0577   0.0656   0.0677   0.0718
  0.0788   0.0798   0.0851   0.0875   0.0920   0.0997   0.1049   0.1097
  0.1132   0.1290   0.1327   0.1344   0.1412   0.1496   0.1519   0.1549
  0.1585   0.1661   0.1721   0.1748   0.1784   0.1894   0.1907   0.2031
  0.2041   0.2140   0.2182   0.2229   0.2320   0.2345   0.2405   0.2413
  0.2531   0.2594   0.2680   0.2739   0.2765   0.2846   0.2908   0.2971
  0.3030   0.3072   0.3135   0.3174   0.3272   0.3315   0.3379   0.3571
  0.3777   0.3903   0.4150   0.4228   0.4886   0.5164   0.5738   0.5856
  0.5874   0.6052   0.6151   0.6310   0.6415   0.6510   0.6566   0.6621
  0.6787   0.6819   0.6876   0.6954   0.7147   0.7174   0.7328   0.7357
  0.7481   0.7550   0.7609   0.7740   0.7794   0.7848   0.8042   0.8206
  0.8417   0.8547   0.8792   0.9189   0.9311   0.9359   0.9393   0.9511
  0.9596   0.9703   0.9742   0.9790   0.9861   0.9995   1.0113   1.0307
  1.0515   1.0641   1.0809   1.0855   1.0955   1.1084   1.1335   1.1356
  1.1577   1.1672   1.1961   1.2132   1.2235   1.2391   1.2466   1.2526
  1.2621   1.2757   1.3043   1.3491   1.3583   1.3954   1.4034   1.4077
  1.4082   1.4309   1.4659   1.4808   1.4876   1.4928   1.5112   1.5311
  1.5536   1.5684   1.5968   1.6119   1.7095   1.7516   1.7793   1.8040
  1.8266   1.8349   1.8393   1.8811   1.8989   1.9213   1.9848   1.9867
  2.0007   2.0105   2.0223   2.0484   2.1136   2.1285   2.1320   2.1671
  2.1820   2.1981   2.2339   2.2590   2.2808   2.2925   2.3207   2.3515
  2.4207   2.5281   2.5851   2.6125   2.6276   2.6587   2.6836   2.7541
  2.7964   2.8469   2.8858   2.9571   3.0552   3.2682   3.9964   4.0747
  4.2074   4.2703   4.2888   4.3006   4.3107   4.3644   4.4048   4.4474
  4.4711   4.4786   4.6695
 --------------------------------------------------------------
 
          Ground-State Mulliken Net Atomic Charges

     Atom                 Charge (a.u.)
  ----------------------------------------
      1 C                    -7.098566
      2 C                     0.714998
      3 Cl                    0.199167
      4 C                     2.433810
      5 H                     0.307109
      6 C                     1.111185
      7 Cl                    0.563287
      8 C                     2.427413
      9 H                     0.295636
     10 C                    -0.453113
     11 Cl                    0.102491
     12 S                     0.485434
     13 O                    -0.795087
     14 O                    -0.717711
     15 N                    -0.978556
     16 H                     0.402503
  ----------------------------------------
  Sum of atomic charges =    -1.000000

         Merz-Kollman ESP Net Atomic Charges

     Atom                 Charge (a.u.)
  ----------------------------------------
      1 C                     0.234799
      2 C                    -0.255188
      3 Cl                   -0.056013
      4 C                     0.077996
      5 H                     0.123599
      6 C                    -0.066501
      7 Cl                   -0.078914
      8 C                     0.043738
      9 H                     0.119506
     10 C                    -0.193642
     11 Cl                   -0.072307
     12 S                     1.092604
     13 O                    -0.615628
     14 O                    -0.695625
     15 N                    -1.050401
     16 H                     0.391976
  ----------------------------------------
  Sum of atomic charges =    -1.000000

  Related Dipole Moment =     8.9885 (X  4.8349 Y -1.4402 Z -7.4393)

 -----------------------------------------------------------------
                    Cartesian Multipole Moments
 -----------------------------------------------------------------
    Charge (ESU x 10^10)
                -4.8032
    Dipole Moment (Debye)
         X       4.8176      Y      -1.3704      Z      -7.4701
       Tot       8.9938
    Quadrupole Moments (Debye-Ang)
        XX    -115.7680     XY       3.9847     YY    -117.0849
        XZ       8.7116     YZ      -2.8198     ZZ    -117.6985
    Octopole Moments (Debye-Ang^2)
       XXX     418.9618    XXY     -83.7803    XYY     154.1394
       YYY    -207.8720    XXZ     116.8256    XYZ       6.5038
       YYZ     129.9119    XZZ     147.6214    YZZ     -70.9388
       ZZZ     412.5293
    Hexadecapole Moments (Debye-Ang^3)
      XXXX   -2661.4888   XXXY     249.1418   XXYY    -586.4832
      XYYY     211.1840   YYYY    -637.4687   XXXZ    -454.9273
      XXYZ     130.2872   XYYZ    -153.3583   YYYZ     502.6509
      XXZZ   -1122.1157   XYZZ      75.4737   YYZZ    -832.7777
      XZZZ    -501.0958   YZZZ     499.6177   ZZZZ   -4258.5613
 -----------------------------------------------------------------
 Total job time:  15.86s(wall), 211.75s(cpu) 
 Thu May 26 10:29:23 2022

        *************************************************************
        *                                                           *
        *  Thank you very much for using Q-Chem.  Have a nice day.  *
        *                                                           *
        *************************************************************


