                  Welcome to Q-Chem
     A Quantum Leap Into The Future Of Chemistry


 Q-Chem 5.4 (devel), Q-Chem, Inc., Pleasanton, CA (2021)

 E. Epifanovsky,  A. T. B. Gilbert,  Xintian Feng,  Joonho Lee,  Yuezhi Mao,  
 N. Mardirossian,  P. Pokhilko,  A. White,  M. Wormit,  M. P. Coons,  
 A. L. Dempwolff,  Zhengting Gan,  D. Hait,  P. R. Horn,  L. D. Jacobson,  
 I. Kaliman,  J. Kussmann,  A. W. Lange,  Ka Un Lao,  D. S. Levine,  Jie Liu,  
 S. C. McKenzie,  A. F. Morrison,  K. Nanda,  F. Plasser,  D. R. Rehn,  
 M. L. Vidal,  Zhi-Qiang You,  Ying Zhu,  B. Alam,  B. Albrecht,  
 A. Aldossary,  E. Alguire,  J. H. Andersen,  D. Barton,  K. Begam,  A. Behn,  
 Y. A. Bernard,  E. J. Berquist,  H. Burton,  A. Carreras,  K. Carter-Fenk,  
 R. Chakraborty,  A. D. Chien,  K. D. Closser,  V. Cofer-Shabica,  
 S. Dasgupta,  Jia Deng,  M. de Wergifosse,  M. Diedenhofen,  Hainam Do,  
 S. Ehlert,  Po-Tung Fang,  S. Fatehi,  Qingguo Feng,  T. Friedhoff,  
 J. Gayvert,  Qinghui Ge,  G. Gidofalvi,  M. Goldey,  J. Gomes,  
 C. Gonzalez-Espinoza,  S. Gulania,  A. Gunina,  M. W. D. Hanson-Heine,  
 P. H. P. Harbach,  A. W. Hauser,  M. F. Herbst,  M. Hernandez Vera,  
 M. Hodecker,  Z. C. Holden,  S. Houck,  Xunkun Huang,  Kerwin Hui,  
 B. C. Huynh,  M. Ivanov,  Hyunjun Ji,  Hanjie Jiang,  B. Kaduk,  S. Kaehler,  
 K. Khistyaev,  Jaehoon Kim,  P. Klunzinger,  Z. Koczor-Benda,  
 Joong Hoon Koh,  D. Kosenkov,  L. Koulias,  T. Kowalczyk,  C. M. Krauter,  
 K. Kue,  A. Kunitsa,  T. Kus,  A. Landau,  K. V. Lawler,  D. Lefrancois,  
 S. Lehtola,  Rain Li,  Yi-Pei Li,  Jiashu Liang,  M. Liebenthal,  
 Hung-Hsuan Lin,  You-Sheng Lin,  Fenglai Liu,  Kuan-Yu Liu,  
 M. Loipersberger,  A. Luenser,  A. Manjanath,  P. Manohar,  E. Mansoor,  
 S. F. Manzer,  Shan-Ping Mao,  A. V. Marenich,  T. Markovich,  S. Mason,  
 S. A. Maurer,  P. F. McLaughlin,  M. F. S. J. Menger,  J.-M. Mewes,  
 S. A. Mewes,  P. Morgante,  J. W. Mullinax,  K. J. Oosterbaan,  G. Paran,  
 Alexander C. Paul,  Suranjan K. Paul,  F. Pavosevic,  Zheng Pei,  S. Prager,  
 E. I. Proynov,  E. Ramos,  B. Rana,  A. E. Rask,  A. Rettig,  R. M. Richard,  
 F. Rob,  E. Rossomme,  T. Scheele,  M. Scheurer,  M. Schneider,  
 N. Sergueev,  S. M. Sharada,  W. Skomorowski,  D. W. Small,  C. J. Stein,  
 Yu-Chuan Su,  E. J. Sundstrom,  Zhen Tao,  J. Thirman,  T. Tsuchimochi,  
 N. M. Tubman,  S. P. Veccham,  O. Vydrov,  J. Wenzel,  J. Witte,  A. Yamada,  
 Kun Yao,  S. Yeganeh,  S. R. Yost,  A. Zech,  Igor Ying Zhang,  Xing Zhang,  
 Yu Zhang,  D. Zuev,  A. Aspuru-Guzik,  A. T. Bell,  N. A. Besley,  
 K. B. Bravaya,  B. R. Brooks,  D. Casanova,  Jeng-Da Chai,  S. Coriani,  
 C. J. Cramer,  A. E. DePrince, III,  R. A. DiStasio Jr.,  A. Dreuw,  
 B. D. Dunietz,  T. R. Furlani,  W. A. Goddard III,  S. Grimme,  
 S. Hammes-Schiffer,  T. Head-Gordon,  W. J. Hehre,  Chao-Ping Hsu,  
 T.-C. Jagau,  Yousung Jung,  A. Klamt,  Jing Kong,  D. S. Lambrecht,  
 WanZhen Liang,  N. J. Mayhall,  C. W. McCurdy,  J. B. Neaton,  
 C. Ochsenfeld,  J. A. Parkhill,  R. Peverati,  V. A. Rassolov,  Yihan Shao,  
 L. V. Slipchenko,  T. Stauch,  R. P. Steele,  J. E. Subotnik,  
 A. J. W. Thom,  A. Tkatchenko,  D. G. Truhlar,  T. Van Voorhis,  
 T. A. Wesolowski,  K. B. Whaley,  H. L. Woodcock III,  P. M. Zimmerman,  
 S. Faraji,  P. M. W. Gill,  M. Head-Gordon,  J. M. Herbert,  A. I. Krylov

 Additional authors for Version 5.4.1: 
 S. Kotaru,  Shaozhi Li,  Xiangyuan Li,  F. Matz,  A. Molle,  Haisheng Ren,  
 Yingli Su,  Hung-Yi Tsai,  C. Utku,  Fang Wang

 Contributors to earlier versions of Q-Chem not listed above: 
 R. D. Adamson,  B. Austin,  R. Baer,  J. Baker,  G. J. O. Beran,  
 K. Brandhorst,  S. T. Brown,  E. F. C. Byrd,  A. K. Chakraborty,  
 G. K. L. Chan,  Chun-Min Chang,  Yunqing Chen,  C.-L. Cheng,  
 Siu Hung Chien,  D. M. Chipman,  D. L. Crittenden,  H. Dachsel,  
 R. J. Doerksen,  A. D. Dutoi,  R. G. Edgar,  J. Fosso-Tande,  
 L. Fusti-Molnar,  D. Ghosh,  A. Ghysels,  A. Golubeva-Zadorozhnaya,  
 J. Gonthier,  M. S. Gordon,  S. R. Gwaltney,  G. Hawkins,  J. E. Herr,  
 A. Heyden,  S. Hirata,  E. G. Hohenstein,  G. Kedziora,  F. J. Keil,  
 C. Kelley,  Jihan Kim,  R. A. King,  R. Z. Khaliullin,  P. P. Korambath,  
 W. Kurlancheek,  A. Laurent,  A. M. Lee,  M. S. Lee,  S. V. Levchenko,  
 Ching Yeh Lin,  D. Liotard,  E. Livshits,  R. C. Lochan,  I. Lotan,  
 L. A. Martinez-Martinez,  P. E. Maslen,  N. Nair,  D. P. O'Neill,  
 D. Neuhauser,  E. Neuscamman,  C. M. Oana,  R. Olivares-Amaya,  R. Olson,  
 T. M. Perrine,  B. Peters,  P. A. Pieniazek,  A. Prociuk,  Y. M. Rhee,  
 J. Ritchie,  M. A. Rohrdanz,  E. Rosta,  N. J. Russ,  H. F. Schaefer III,  
 M. W. Schmidt,  N. E. Schultz,  S. Sharma,  N. Shenvi,  C. D. Sherrill,  
 A. C. Simmonett,  A. Sodt,  T. Stein,  D. Stuck,  K. S. Thanthiriwatte,  
 V. Vanovschi,  L. Vogt,  Tao Wang,  A. Warshel,  M. A. Watson,  
 C. F. Williams,  Q. Wu,  X. Xu,  Jun Yang,  W. Zhang,  Yan Zhao

 Please cite Q-Chem as follows:
 Y. Shao et al., Mol. Phys. 113, 184-215 (2015)
 DOI: 10.1080/00268976.2014.952696

 Q-Chem 5.4.1 for Intel X86 EM64T Linux

 Parts of Q-Chem use Armadillo 9.800.1 (Horizon Scraper).
 http://arma.sourceforge.net/

 Q-Chem begins on Fri Jul  1 13:47:23 2022  

 Host: gadi-cpu-clx-2128.gadi.nci.org.au
0

     Scratch files written to /jobfs/49913876.gadi-pbs/qchem1747115//
 Processing $rem in /apps/qchem/5.4.1/config/preferences:
 Processing $rem in /home/561/yj5695/.qchemrc:
 Symmetry turned off for PCM/SM12/SMD calculation
 Method-specific promolecule density matrix will be built for SM12 calculation

 Checking the input file for inconsistencies... 	...done.

--------------------------------------------------------------
User input:
--------------------------------------------------------------
$molecule
-1  1
C -1.4374658993  0.610361084 -0.8532594991
C -2.5431019155  0.5282702683 -1.7140596141
Cl -4.1699137013  0.5541040719 -1.0919757441
C -2.3955470139  0.4329047887 -3.087325563
H -3.2651617257  0.389016702 -3.734809149
C -1.1196778316  0.4060713106 -3.6657482998
C -0.0238713679  0.4638964655 -2.7898207394
S  1.5826686591  0.2421931642 -3.4473877378
C -0.1676233749  0.5694336835 -1.4085843737
H  0.7033854624  0.617697532 -0.7616344097
S -1.5925089569  0.7780677787  0.9530261861
O -2.2745701741 -0.4865701398  1.3464063405
O -0.1813280485  0.8726149332  1.3998673949
N -2.3414300538  2.0936015082  1.3124004264
H -3.3435175464  1.9435059659  1.1805676101
N -1.0374067125  0.369739993 -5.0582836727
C  0.0946598274  0.602128656 -5.6198936266
N  1.2905113224  0.8445389776 -4.977750127
O  2.571722874  1.1008324853 -2.8057301818
O  1.8929725919 -1.1836136217 -3.5290143176
H  0.1564437969  0.6700775768 -6.7021759272
H  2.1202447883  0.995908816 -5.5561399752
$end

$rem
jobtype sp
exchange M062X
basis 6-31+G*
SMX_GAS_PHASE = TRUE
solvent_method sm12
$end

$smx
solvent water
charges mk
$end
--------------------------------------------------------------
 ----------------------------------------------------------------
             Standard Nuclear Orientation (Angstroms)
    I     Atom           X                Y                Z
 ----------------------------------------------------------------
    1      C      -1.4374658993     0.6103610840    -0.8532594991
    2      C      -2.5431019155     0.5282702683    -1.7140596141
    3      Cl     -4.1699137013     0.5541040719    -1.0919757441
    4      C      -2.3955470139     0.4329047887    -3.0873255630
    5      H      -3.2651617257     0.3890167020    -3.7348091490
    6      C      -1.1196778316     0.4060713106    -3.6657482998
    7      C      -0.0238713679     0.4638964655    -2.7898207394
    8      S       1.5826686591     0.2421931642    -3.4473877378
    9      C      -0.1676233749     0.5694336835    -1.4085843737
   10      H       0.7033854624     0.6176975320    -0.7616344097
   11      S      -1.5925089569     0.7780677787     0.9530261861
   12      O      -2.2745701741    -0.4865701398     1.3464063405
   13      O      -0.1813280485     0.8726149332     1.3998673949
   14      N      -2.3414300538     2.0936015082     1.3124004264
   15      H      -3.3435175464     1.9435059659     1.1805676101
   16      N      -1.0374067125     0.3697399930    -5.0582836727
   17      C       0.0946598274     0.6021286560    -5.6198936266
   18      N       1.2905113224     0.8445389776    -4.9777501270
   19      O       2.5717228740     1.1008324853    -2.8057301818
   20      O       1.8929725919    -1.1836136217    -3.5290143176
   21      H       0.1564437969     0.6700775768    -6.7021759272
   22      H       2.1202447883     0.9959088160    -5.5561399752
 ----------------------------------------------------------------
 Nuclear Repulsion Energy =        1680.64602802 hartrees
 There are       75 alpha and       75 beta electrons
 Requested basis set is 6-31+G(d)
 There are 98 shells and 345 basis functions

 Total QAlloc Memory Limit   2000 MB
 Mega-Array Size       188 MB
 MEM_STATIC part       192 MB
 A cutoff of  1.0D-08 yielded   3517 shell pairs
 There are     46475 function pairs
 Smallest overlap matrix eigenvalue = 5.64E-07

 Q-Chem warning in module stvman/mkSTV.C, line 323:

 Overlap eigenvalue is smaller than square root of threshold
 Use THRESH >= 12 to get rid of this warning

 Linear dependence detected in AO basis
 Tighter screening thresholds may be required for diffuse basis sets
 Use S2THRESH > 14 and THRESH = 14 in case of SCF convergence issues
 Number of orthogonalized atomic orbitals = 343
 Maximum deviation from orthogonality = 9.838E-11

 Scale SEOQF with 1.000000e-01/1.000000e-01/1.000000e-02

 Standard Electronic Orientation quadrupole field applied
 Nucleus-field energy     =     0.0000000175 hartrees
 ================ Generating on-the-fly Promolecule Density  ================
Attempting to make child job directory: /jobfs/49913876.gadi-pbs/qchem1747115//Frg1/
Attempting to make child job directory: /jobfs/49913876.gadi-pbs/qchem1747115//Frg2/
Attempting to make child job directory: /jobfs/49913876.gadi-pbs/qchem1747115//Frg3/
Attempting to make child job directory: /jobfs/49913876.gadi-pbs/qchem1747115//Frg4/
Attempting to make child job directory: /jobfs/49913876.gadi-pbs/qchem1747115//Frg5/
Attempting to make child job directory: /jobfs/49913876.gadi-pbs/qchem1747115//Frg6/
Creating input file /jobfs/49913876.gadi-pbs/qchem1747115/Frg1.input
using default PutDataFrgm: nothing
calling putenv with: QCSCRATCH=/jobfs/49913876.gadi-pbs/qchem1747115/ 
Spawning Job For Fragment 0
Done Job For Fragment 0
calling putenv with: QCSCRATCH=/jobfs/49913876.gadi-pbs 
calling putenv with: QCTHREADS=8 
Creating input file /jobfs/49913876.gadi-pbs/qchem1747115/Frg2.input
using default PutDataFrgm: nothing
calling putenv with: QCSCRATCH=/jobfs/49913876.gadi-pbs/qchem1747115/ 
Spawning Job For Fragment 1
Done Job For Fragment 1
calling putenv with: QCSCRATCH=/jobfs/49913876.gadi-pbs 
calling putenv with: QCTHREADS=8 
Creating input file /jobfs/49913876.gadi-pbs/qchem1747115/Frg3.input
using default PutDataFrgm: nothing
calling putenv with: QCSCRATCH=/jobfs/49913876.gadi-pbs/qchem1747115/ 
Spawning Job For Fragment 2
Done Job For Fragment 2
calling putenv with: QCSCRATCH=/jobfs/49913876.gadi-pbs 
calling putenv with: QCTHREADS=8 
Creating input file /jobfs/49913876.gadi-pbs/qchem1747115/Frg4.input
using default PutDataFrgm: nothing
calling putenv with: QCSCRATCH=/jobfs/49913876.gadi-pbs/qchem1747115/ 
Spawning Job For Fragment 3
Done Job For Fragment 3
calling putenv with: QCSCRATCH=/jobfs/49913876.gadi-pbs 
calling putenv with: QCTHREADS=8 
Creating input file /jobfs/49913876.gadi-pbs/qchem1747115/Frg5.input
using default PutDataFrgm: nothing
calling putenv with: QCSCRATCH=/jobfs/49913876.gadi-pbs/qchem1747115/ 
Spawning Job For Fragment 4
Done Job For Fragment 4
calling putenv with: QCSCRATCH=/jobfs/49913876.gadi-pbs 
calling putenv with: QCTHREADS=8 
Creating input file /jobfs/49913876.gadi-pbs/qchem1747115/Frg6.input
using default PutDataFrgm: nothing
calling putenv with: QCSCRATCH=/jobfs/49913876.gadi-pbs/qchem1747115/ 
Spawning Job For Fragment 5
Done Job For Fragment 5
calling putenv with: QCSCRATCH=/jobfs/49913876.gadi-pbs 
calling putenv with: QCTHREADS=8 
 Time for running child jobs:  CPU 0.80 s  wall 2.41 s
 ============= Method Specific Promolecule Density Constructed =============
 Guess from superposition of atomic densities
 Warning:  Energy on first SCF cycle will be non-variational
 SAD guess density has 149.000000 electrons

 -----------------------------------------------------------------------
  General SCF calculation program by
  Eric Jon Sundstrom, Paul Horn, Yuezhi Mao, Dmitri Zuev, Alec White,
  David Stuck, Shaama M.S., Shane Yost, Joonho Lee, David Small,
  Daniel Levine, Susi Lehtola, Hugh Burton, Evgeny Epifanovsky,
  Bang C. Huynh
 -----------------------------------------------------------------------
 Exchange:     0.5400 Hartree-Fock + 1.0000 M06-2X
 Correlation:  1.0000 M06-2X
 Using SG-3 standard quadrature grid
 using 8 threads for integral computing
 -------------------------------------------------------
 OpenMP Integral computing Module                
 Release: version 1.0, May 2013, Q-Chem Inc. Pittsburgh 
 -------------------------------------------------------
 A restricted SCF calculation will be
 performed using DIIS
 SCF converges when DIIS error is below 1.0e-05
 ---------------------------------------
  Cycle       Energy         DIIS error
 ---------------------------------------
    1   -1996.6071557358      4.21e-02  
    2   -1990.5260022075      6.18e-03  
    3   -1990.0845072199      9.04e-03  
    4   -1990.9992750644      9.44e-04  
    5   -1991.0090169058      4.31e-04  
    6   -1991.0112497338      1.17e-04  
    7   -1991.0114338452      4.06e-05  
    8   -1991.0114572850      1.10e-05  
    9   -1991.0114599014      4.66e-06  Convergence criterion met
 ---------------------------------------
 SCF time:   CPU 165.76s  wall 23.00s 
 SCF   energy in the final basis set =    -1991.0114599014
 Total energy in the final basis set =    -1991.0114599014
 Exchange:     0.5400 Hartree-Fock + 1.0000 M06-2X
 Correlation:  1.0000 M06-2X
 Using SG-3 standard quadrature grid
 
 SM12 calculation using Merz-Singh-Kollman charges
 Citation of the SM12 model:
 Marenich, A.V.; Cramer, C.J.; Truhlar, D.G.
 J. Chem. Theory Comput. 2013, 9, 609-612.
 iSolventCode=           1
 Solvent: water                                                           
 
  Building new vdw surfaces
         Merz-Kollman ESP Net Atomic Charges

     Atom                 Charge (a.u.)
  ----------------------------------------
      1 C                    -0.138187
      2 C                     0.098707
      3 Cl                   -0.088466
      4 C                    -0.413631
      5 H                     0.185945
      6 C                     0.766981
      7 C                    -0.276002
      8 S                     1.039285
      9 C                    -0.111095
     10 H                     0.217512
     11 S                     1.190498
     12 O                    -0.666680
     13 O                    -0.631679
     14 N                    -0.986501
     15 H                     0.365907
     16 N                    -0.762296
     17 C                     0.460858
     18 N                    -0.747893
     19 O                    -0.507821
     20 O                    -0.517816
     21 H                     0.090980
     22 H                     0.431394
  ----------------------------------------
  Sum of atomic charges =    -1.000000

  Related Dipole Moment =     8.0676 (X  4.7935 Y -2.0557 Z -6.1548)


 Charges (in A.U.) from Merz-Kollman fitting 
 -----------------------------------------------
 Center     Atomic                  MZ       
 Number     Number                  Charge
 -----------------------------------------------
    1          6                   -0.138187
    2          6                    0.098707
    3         17                   -0.088466
    4          6                   -0.413631
    5          1                    0.185945
    6          6                    0.766981
    7          6                   -0.276002
    8         16                    1.039285
    9          6                   -0.111095
   10          1                    0.217512
   11         16                    1.190498
   12          8                   -0.666680
   13          8                   -0.631679
   14          7                   -0.986501
   15          1                    0.365907
   16          7                   -0.762296
   17          6                    0.460858
   18          7                   -0.747893
   19          8                   -0.507821
   20          8                   -0.517816
   21          1                    0.090980
   22          1                    0.431394
 -----------------------------------------------
 A restricted SCF calculation will be
 performed using Roothaan-Hall, DIIS
 SCF converges when DIIS error is below 1.0e-05
 ---------------------------------------
  Cycle       Energy         DIIS error
 ---------------------------------------
         Merz-Kollman ESP Net Atomic Charges

     Atom                 Charge (a.u.)
  ----------------------------------------
      1 C                    -0.151494
      2 C                     0.059948
      3 Cl                   -0.067516
      4 C                    -0.390483
      5 H                     0.206060
      6 C                     0.810841
      7 C                    -0.262934
      8 S                     1.097596
      9 C                    -0.150038
     10 H                     0.222284
     11 S                     1.205880
     12 O                    -0.705180
     13 O                    -0.673967
     14 N                    -1.038516
     15 H                     0.384665
     16 N                    -0.823297
     17 C                     0.525471
     18 N                    -0.721968
     19 O                    -0.551259
     20 O                    -0.563269
     21 H                     0.124673
     22 H                     0.462502
  ----------------------------------------
  Sum of atomic charges =    -1.000000

  Related Dipole Moment =    11.7309 (X  5.1206 Y -1.8695 Z -10.3874)


 Charges (in A.U.) from Merz-Kollman fitting 
 -----------------------------------------------
 Center     Atomic                  MZ       
 Number     Number                  Charge
 -----------------------------------------------
    1          6                   -0.151494
    2          6                    0.059948
    3         17                   -0.067516
    4          6                   -0.390483
    5          1                    0.206060
    6          6                    0.810841
    7          6                   -0.262934
    8         16                    1.097596
    9          6                   -0.150038
   10          1                    0.222284
   11         16                    1.205880
   12          8                   -0.705180
   13          8                   -0.673967
   14          7                   -1.038516
   15          1                    0.384665
   16          7                   -0.823297
   17          6                    0.525471
   18          7                   -0.721968
   19          8                   -0.551259
   20          8                   -0.563269
   21          1                    0.124673
   22          1                    0.462502
 -----------------------------------------------
    1   -1991.0114599305      5.31e-04  Roothaan Step
 ---------------------------------------
  Cycle       Energy         DIIS error
 ---------------------------------------
         Merz-Kollman ESP Net Atomic Charges

     Atom                 Charge (a.u.)
  ----------------------------------------
      1 C                    -0.093746
      2 C                     0.083661
      3 Cl                   -0.082421
      4 C                    -0.435452
      5 H                     0.217063
      6 C                     0.789382
      7 C                    -0.270312
      8 S                     1.051862
      9 C                    -0.150220
     10 H                     0.227559
     11 S                     1.237364
     12 O                    -0.719470
     13 O                    -0.687553
     14 N                    -1.057620
     15 H                     0.378796
     16 N                    -0.757927
     17 C                     0.447776
     18 N                    -0.774037
     19 O                    -0.519213
     20 O                    -0.527455
     21 H                     0.156922
     22 H                     0.485044
  ----------------------------------------
  Sum of atomic charges =    -1.000000

  Related Dipole Moment =    11.7113 (X  5.3899 Y -2.1441 Z -10.1738)


 Charges (in A.U.) from Merz-Kollman fitting 
 -----------------------------------------------
 Center     Atomic                  MZ       
 Number     Number                  Charge
 -----------------------------------------------
    1          6                   -0.093746
    2          6                    0.083661
    3         17                   -0.082421
    4          6                   -0.435452
    5          1                    0.217063
    6          6                    0.789382
    7          6                   -0.270312
    8         16                    1.051862
    9          6                   -0.150220
   10          1                    0.227559
   11         16                    1.237364
   12          8                   -0.719470
   13          8                   -0.687553
   14          7                   -1.057620
   15          1                    0.378796
   16          7                   -0.757927
   17          6                    0.447776
   18          7                   -0.774037
   19          8                   -0.519213
   20          8                   -0.527455
   21          1                    0.156922
   22          1                    0.485044
 -----------------------------------------------
    1   -1990.9966626741      3.91e-04  
         Merz-Kollman ESP Net Atomic Charges

     Atom                 Charge (a.u.)
  ----------------------------------------
      1 C                    -0.131731
      2 C                     0.070384
      3 Cl                   -0.074252
      4 C                    -0.419718
      5 H                     0.214634
      6 C                     0.807934
      7 C                    -0.254773
      8 S                     1.089098
      9 C                    -0.155249
     10 H                     0.226731
     11 S                     1.244528
     12 O                    -0.721787
     13 O                    -0.690378
     14 N                    -1.060748
     15 H                     0.382011
     16 N                    -0.800338
     17 C                     0.486239
     18 N                    -0.739197
     19 O                    -0.543107
     20 O                    -0.554228
     21 H                     0.149009
     22 H                     0.474938
  ----------------------------------------
  Sum of atomic charges =    -1.000000

  Related Dipole Moment =    12.2570 (X  5.4444 Y -1.9931 Z -10.7991)


 Charges (in A.U.) from Merz-Kollman fitting 
 -----------------------------------------------
 Center     Atomic                  MZ       
 Number     Number                  Charge
 -----------------------------------------------
    1          6                   -0.131731
    2          6                    0.070384
    3         17                   -0.074252
    4          6                   -0.419718
    5          1                    0.214634
    6          6                    0.807934
    7          6                   -0.254773
    8         16                    1.089098
    9          6                   -0.155249
   10          1                    0.226731
   11         16                    1.244528
   12          8                   -0.721787
   13          8                   -0.690378
   14          7                   -1.060748
   15          1                    0.382011
   16          7                   -0.800338
   17          6                    0.486239
   18          7                   -0.739197
   19          8                   -0.543107
   20          8                   -0.554228
   21          1                    0.149009
   22          1                    0.474938
 -----------------------------------------------
    2   -1990.9974823454      4.61e-04  
         Merz-Kollman ESP Net Atomic Charges

     Atom                 Charge (a.u.)
  ----------------------------------------
      1 C                    -0.131968
      2 C                     0.073221
      3 Cl                   -0.074567
      4 C                    -0.418546
      5 H                     0.214938
      6 C                     0.810440
      7 C                    -0.260449
      8 S                     1.078142
      9 C                    -0.155737
     10 H                     0.227654
     11 S                     1.245714
     12 O                    -0.723841
     13 O                    -0.692535
     14 N                    -1.065142
     15 H                     0.383429
     16 N                    -0.796417
     17 C                     0.487616
     18 N                    -0.744526
     19 O                    -0.537724
     20 O                    -0.548333
     21 H                     0.151241
     22 H                     0.477390
  ----------------------------------------
  Sum of atomic charges =    -1.000000

  Related Dipole Moment =    12.4279 (X  5.4435 Y -2.0311 Z -10.9862)


 Charges (in A.U.) from Merz-Kollman fitting 
 -----------------------------------------------
 Center     Atomic                  MZ       
 Number     Number                  Charge
 -----------------------------------------------
    1          6                   -0.131968
    2          6                    0.073221
    3         17                   -0.074567
    4          6                   -0.418546
    5          1                    0.214938
    6          6                    0.810440
    7          6                   -0.260449
    8         16                    1.078142
    9          6                   -0.155737
   10          1                    0.227654
   11         16                    1.245714
   12          8                   -0.723841
   13          8                   -0.692535
   14          7                   -1.065142
   15          1                    0.383429
   16          7                   -0.796417
   17          6                    0.487616
   18          7                   -0.744526
   19          8                   -0.537724
   20          8                   -0.548333
   21          1                    0.151241
   22          1                    0.477390
 -----------------------------------------------
    3   -1990.9957124298      7.28e-05  
         Merz-Kollman ESP Net Atomic Charges

     Atom                 Charge (a.u.)
  ----------------------------------------
      1 C                    -0.131198
      2 C                     0.073523
      3 Cl                   -0.074863
      4 C                    -0.422473
      5 H                     0.215850
      6 C                     0.809404
      7 C                    -0.257303
      8 S                     1.081832
      9 C                    -0.155479
     10 H                     0.227779
     11 S                     1.248084
     12 O                    -0.725025
     13 O                    -0.693497
     14 N                    -1.066955
     15 H                     0.383017
     16 N                    -0.796183
     17 C                     0.484524
     18 N                    -0.743256
     19 O                    -0.539048
     20 O                    -0.549998
     21 H                     0.153588
     22 H                     0.477677
  ----------------------------------------
  Sum of atomic charges =    -1.000000

  Related Dipole Moment =    12.5050 (X  5.5059 Y -2.0315 Z -11.0424)


 Charges (in A.U.) from Merz-Kollman fitting 
 -----------------------------------------------
 Center     Atomic                  MZ       
 Number     Number                  Charge
 -----------------------------------------------
    1          6                   -0.131198
    2          6                    0.073523
    3         17                   -0.074863
    4          6                   -0.422473
    5          1                    0.215850
    6          6                    0.809404
    7          6                   -0.257303
    8         16                    1.081832
    9          6                   -0.155479
   10          1                    0.227779
   11         16                    1.248084
   12          8                   -0.725025
   13          8                   -0.693497
   14          7                   -1.066955
   15          1                    0.383017
   16          7                   -0.796183
   17          6                    0.484524
   18          7                   -0.743256
   19          8                   -0.539048
   20          8                   -0.549998
   21          1                    0.153588
   22          1                    0.477677
 -----------------------------------------------
    4   -1990.9948740748      3.92e-05  
    5   -1990.9944247098      7.21e-06  Convergence criterion met
 ---------------------------------------
 SCF time:   CPU 134.85s  wall 19.00s 
(0)  E-EN(g) gas-phase elect-nuc energy                -1991.011459901 a.u.
(1)  E-EN(liq) elect-nuc energy of solute              -1990.994424710 a.u.
(2)  G-P(liq) polarization free energy of solvation           -84.3037 kcal/mol
(3)  G-ENP(liq) elect-nuc-pol free energy of system    -1991.128771137 a.u.
(4)  G-CDS(liq) cavity-dispersion-solvent structure 
     free energy                                                3.7112 kcal/mol
(5)  G-P-CDS(liq) = G-P(liq) + G-CDS(liq) = (2) + (4)         -80.5925 kcal/mol
(6)  G-S(liq) free energy of system = (1) + (5)        -1991.122857008 a.u.
(7)  DeltaE-EN(liq) elect-nuc reorganization
     energy of solute molecule (7) = (1) - (0)                 10.6897 kcal/mol
(8)  DeltaG-ENP(liq) elect-nuc-pol free energy
     of solvation (8) = (3) - (0)                             -73.6139 kcal/mol
(9)  DeltaG-S(liq) free energy of  solvation
     (9) = (6) - (0)                                          -69.9027 kcal/mol
 SCF   energy in the final basis set =    -1991.1228570083
 Total energy in the final basis set =    -1991.1228570083
 
 --------------------------------------------------------------
 
                    Orbital Energies (a.u.)
 --------------------------------------------------------------
 
 Alpha MOs
 -- Occupied --
******** -90.1978 -90.1450 -19.6761 -19.6741 -19.6303 -19.6287 -14.8488
-14.7902 -14.7327 -10.6720 -10.6562 -10.6407 -10.6215 -10.6109 -10.6062
-10.5949  -9.8440  -8.5116  -8.4573  -7.5683  -7.5618  -7.5614  -6.4346
 -6.4330  -6.4323  -6.3798  -6.3792  -6.3785  -1.2790  -1.2204  -1.1585
 -1.1304  -1.1046  -1.0503  -1.0229  -0.9786  -0.9746  -0.9002  -0.8903
 -0.8082  -0.7823  -0.7403  -0.7132  -0.6671  -0.6649  -0.6494  -0.6123
 -0.5942  -0.5807  -0.5775  -0.5688  -0.5566  -0.5405  -0.5291  -0.5242
 -0.5076  -0.4943  -0.4816  -0.4568  -0.4526  -0.4375  -0.4231  -0.4173
 -0.4135  -0.4053  -0.4008  -0.3916  -0.3858  -0.3732  -0.3658  -0.3402
 -0.3357  -0.3260  -0.3025
 -- Virtual --
 -0.0477  -0.0303  -0.0237  -0.0123   0.0027   0.0038   0.0084   0.0153
  0.0221   0.0278   0.0307   0.0328   0.0380   0.0513   0.0526   0.0619
  0.0675   0.0738   0.0755   0.0785   0.0795   0.0884   0.0965   0.0982
  0.1022   0.1121   0.1134   0.1170   0.1198   0.1269   0.1290   0.1388
  0.1417   0.1483   0.1522   0.1547   0.1635   0.1690   0.1698   0.1782
  0.1845   0.1898   0.1915   0.1969   0.1981   0.2055   0.2090   0.2131
  0.2222   0.2233   0.2304   0.2354   0.2362   0.2416   0.2485   0.2504
  0.2557   0.2602   0.2640   0.2664   0.2727   0.2750   0.2808   0.2837
  0.2891   0.2913   0.2930   0.3005   0.3054   0.3093   0.3139   0.3217
  0.3244   0.3314   0.3324   0.3384   0.3438   0.3488   0.3544   0.3599
  0.3715   0.3790   0.3812   0.3970   0.4100   0.4107   0.4320   0.4374
  0.4642   0.4675   0.4909   0.5155   0.5441   0.5775   0.5892   0.6000
  0.6162   0.6420   0.6486   0.6532   0.6565   0.6706   0.6804   0.6990
  0.7022   0.7087   0.7188   0.7325   0.7370   0.7477   0.7626   0.7704
  0.7856   0.7925   0.8092   0.8255   0.8464   0.8564   0.8893   0.8978
  0.9206   0.9333   0.9425   0.9512   0.9541   0.9710   0.9798   0.9975
  1.0079   1.0162   1.0203   1.0321   1.0477   1.0608   1.0665   1.0744
  1.0802   1.0858   1.0988   1.1070   1.1189   1.1219   1.1387   1.1533
  1.1568   1.1697   1.1741   1.1985   1.2021   1.2143   1.2293   1.2441
  1.2538   1.2648   1.2722   1.2874   1.3202   1.3291   1.3372   1.3505
  1.3583   1.3588   1.3748   1.3801   1.3862   1.3941   1.3983   1.4078
  1.4283   1.4312   1.4443   1.4610   1.4800   1.4937   1.5020   1.5125
  1.5237   1.5364   1.5503   1.5687   1.5705   1.6023   1.6097   1.6359
  1.6968   1.7343   1.7685   1.7882   1.8026   1.8070   1.8213   1.8298
  1.8324   1.8407   1.8453   1.8556   1.8711   1.8784   1.8888   1.8919
  1.9105   1.9237   1.9349   1.9740   1.9832   2.0025   2.0070   2.0374
  2.0611   2.0682   2.0771   2.0956   2.1332   2.1524   2.1627   2.1799
  2.1978   2.2011   2.2153   2.2247   2.2506   2.2572   2.2755   2.2966
  2.2995   2.3389   2.3581   2.3993   2.4105   2.4172   2.4355   2.5221
  2.5874   2.6198   2.6237   2.6703   2.6769   2.6788   2.7334   2.7610
  2.7932   2.8033   2.8544   2.8798   2.9051   2.9463   2.9744   2.9864
  3.0562   3.2681   3.3281   4.0017   4.0125   4.0737   4.1217   4.1893
  4.2291   4.2390   4.2851   4.3046   4.3359   4.3469   4.3787   4.4012
  4.4268   4.4687   4.5165   4.7332
 --------------------------------------------------------------
 
          Ground-State Mulliken Net Atomic Charges

     Atom                 Charge (a.u.)
  ----------------------------------------
      1 C                    -5.304485
      2 C                     1.446147
      3 Cl                    0.225697
      4 C                    -0.930327
      5 H                     0.306591
      6 C                     1.929839
      7 C                     1.025930
      8 S                     2.013876
      9 C                    -0.110092
     10 H                     0.298790
     11 S                     0.447002
     12 O                    -0.686880
     13 O                    -0.887293
     14 N                    -0.953879
     15 H                     0.404720
     16 N                    -0.287016
     17 C                     0.792980
     18 N                    -0.467611
     19 O                    -0.638312
     20 O                    -0.554309
     21 H                     0.342842
     22 H                     0.585792
  ----------------------------------------
  Sum of atomic charges =    -1.000000

         Merz-Kollman ESP Net Atomic Charges

     Atom                 Charge (a.u.)
  ----------------------------------------
      1 C                    -0.132144
      2 C                     0.074272
      3 Cl                   -0.075131
      4 C                    -0.422577
      5 H                     0.215777
      6 C                     0.810499
      7 C                    -0.257692
      8 S                     1.081071
      9 C                    -0.155962
     10 H                     0.227974
     11 S                     1.251034
     12 O                    -0.725816
     13 O                    -0.694375
     14 N                    -1.067981
     15 H                     0.382997
     16 N                    -0.796220
     17 C                     0.483842
     18 N                    -0.742919
     19 O                    -0.538695
     20 O                    -0.549556
     21 H                     0.153932
     22 H                     0.477669
  ----------------------------------------
  Sum of atomic charges =    -1.000000

  Related Dipole Moment =    12.5188 (X  5.5097 Y -2.0353 Z -11.0553)

 -----------------------------------------------------------------
                    Cartesian Multipole Moments
 -----------------------------------------------------------------
    Charge (ESU x 10^10)
                -4.8032
    Dipole Moment (Debye)
         X       5.4794      Y      -2.0840      Z     -11.0399
       Tot      12.4999
    Quadrupole Moments (Debye-Ang)
        XX    -143.5418     XY       6.4479     YY    -141.4385
        XZ       4.2478     YZ     -18.7445     ZZ     -97.1001
    Octopole Moments (Debye-Ang^2)
       XXX     306.8971    XXY     -66.7315    XYY     119.5507
       YYY    -231.5723    XXZ     216.5665    XYZ     -13.4227
       YYZ     219.8376    XZZ     198.3600    YZZ      -5.7877
       ZZZ     364.7421
    Hexadecapole Moments (Debye-Ang^3)
      XXXX   -3374.6513   XXXY     229.6395   XXYY    -732.0574
      XYYY     323.2213   YYYY    -735.2157   XXXZ     241.2084
      XXYZ      43.1271   XYYZ     119.6117   YYYZ     168.0306
      XXZZ   -1587.7890   XYZZ     219.9090   YYZZ   -1225.9762
      XZZZ    -381.4916   YZZZ    -227.2523   ZZZZ   -4277.1145
 -----------------------------------------------------------------
 Total job time:  45.18s(wall), 305.77s(cpu) 
 Fri Jul  1 13:48:08 2022

        *************************************************************
        *                                                           *
        *  Thank you very much for using Q-Chem.  Have a nice day.  *
        *                                                           *
        *************************************************************


