                  Welcome to Q-Chem
     A Quantum Leap Into The Future Of Chemistry


 Q-Chem 5.4 (devel), Q-Chem, Inc., Pleasanton, CA (2021)

 E. Epifanovsky,  A. T. B. Gilbert,  Xintian Feng,  Joonho Lee,  Yuezhi Mao,  
 N. Mardirossian,  P. Pokhilko,  A. White,  M. Wormit,  M. P. Coons,  
 A. L. Dempwolff,  Zhengting Gan,  D. Hait,  P. R. Horn,  L. D. Jacobson,  
 I. Kaliman,  J. Kussmann,  A. W. Lange,  Ka Un Lao,  D. S. Levine,  Jie Liu,  
 S. C. McKenzie,  A. F. Morrison,  K. Nanda,  F. Plasser,  D. R. Rehn,  
 M. L. Vidal,  Zhi-Qiang You,  Ying Zhu,  B. Alam,  B. Albrecht,  
 A. Aldossary,  E. Alguire,  J. H. Andersen,  D. Barton,  K. Begam,  A. Behn,  
 Y. A. Bernard,  E. J. Berquist,  H. Burton,  A. Carreras,  K. Carter-Fenk,  
 R. Chakraborty,  A. D. Chien,  K. D. Closser,  V. Cofer-Shabica,  
 S. Dasgupta,  Jia Deng,  M. de Wergifosse,  M. Diedenhofen,  Hainam Do,  
 S. Ehlert,  Po-Tung Fang,  S. Fatehi,  Qingguo Feng,  T. Friedhoff,  
 J. Gayvert,  Qinghui Ge,  G. Gidofalvi,  M. Goldey,  J. Gomes,  
 C. Gonzalez-Espinoza,  S. Gulania,  A. Gunina,  M. W. D. Hanson-Heine,  
 P. H. P. Harbach,  A. W. Hauser,  M. F. Herbst,  M. Hernandez Vera,  
 M. Hodecker,  Z. C. Holden,  S. Houck,  Xunkun Huang,  Kerwin Hui,  
 B. C. Huynh,  M. Ivanov,  Hyunjun Ji,  Hanjie Jiang,  B. Kaduk,  S. Kaehler,  
 K. Khistyaev,  Jaehoon Kim,  P. Klunzinger,  Z. Koczor-Benda,  
 Joong Hoon Koh,  D. Kosenkov,  L. Koulias,  T. Kowalczyk,  C. M. Krauter,  
 K. Kue,  A. Kunitsa,  T. Kus,  A. Landau,  K. V. Lawler,  D. Lefrancois,  
 S. Lehtola,  Rain Li,  Yi-Pei Li,  Jiashu Liang,  M. Liebenthal,  
 Hung-Hsuan Lin,  You-Sheng Lin,  Fenglai Liu,  Kuan-Yu Liu,  
 M. Loipersberger,  A. Luenser,  A. Manjanath,  P. Manohar,  E. Mansoor,  
 S. F. Manzer,  Shan-Ping Mao,  A. V. Marenich,  T. Markovich,  S. Mason,  
 S. A. Maurer,  P. F. McLaughlin,  M. F. S. J. Menger,  J.-M. Mewes,  
 S. A. Mewes,  P. Morgante,  J. W. Mullinax,  K. J. Oosterbaan,  G. Paran,  
 Alexander C. Paul,  Suranjan K. Paul,  F. Pavosevic,  Zheng Pei,  S. Prager,  
 E. I. Proynov,  E. Ramos,  B. Rana,  A. E. Rask,  A. Rettig,  R. M. Richard,  
 F. Rob,  E. Rossomme,  T. Scheele,  M. Scheurer,  M. Schneider,  
 N. Sergueev,  S. M. Sharada,  W. Skomorowski,  D. W. Small,  C. J. Stein,  
 Yu-Chuan Su,  E. J. Sundstrom,  Zhen Tao,  J. Thirman,  T. Tsuchimochi,  
 N. M. Tubman,  S. P. Veccham,  O. Vydrov,  J. Wenzel,  J. Witte,  A. Yamada,  
 Kun Yao,  S. Yeganeh,  S. R. Yost,  A. Zech,  Igor Ying Zhang,  Xing Zhang,  
 Yu Zhang,  D. Zuev,  A. Aspuru-Guzik,  A. T. Bell,  N. A. Besley,  
 K. B. Bravaya,  B. R. Brooks,  D. Casanova,  Jeng-Da Chai,  S. Coriani,  
 C. J. Cramer,  A. E. DePrince, III,  R. A. DiStasio Jr.,  A. Dreuw,  
 B. D. Dunietz,  T. R. Furlani,  W. A. Goddard III,  S. Grimme,  
 S. Hammes-Schiffer,  T. Head-Gordon,  W. J. Hehre,  Chao-Ping Hsu,  
 T.-C. Jagau,  Yousung Jung,  A. Klamt,  Jing Kong,  D. S. Lambrecht,  
 WanZhen Liang,  N. J. Mayhall,  C. W. McCurdy,  J. B. Neaton,  
 C. Ochsenfeld,  J. A. Parkhill,  R. Peverati,  V. A. Rassolov,  Yihan Shao,  
 L. V. Slipchenko,  T. Stauch,  R. P. Steele,  J. E. Subotnik,  
 A. J. W. Thom,  A. Tkatchenko,  D. G. Truhlar,  T. Van Voorhis,  
 T. A. Wesolowski,  K. B. Whaley,  H. L. Woodcock III,  P. M. Zimmerman,  
 S. Faraji,  P. M. W. Gill,  M. Head-Gordon,  J. M. Herbert,  A. I. Krylov

 Additional authors for Version 5.4.1: 
 S. Kotaru,  Shaozhi Li,  Xiangyuan Li,  F. Matz,  A. Molle,  Haisheng Ren,  
 Yingli Su,  Hung-Yi Tsai,  C. Utku,  Fang Wang

 Contributors to earlier versions of Q-Chem not listed above: 
 R. D. Adamson,  B. Austin,  R. Baer,  J. Baker,  G. J. O. Beran,  
 K. Brandhorst,  S. T. Brown,  E. F. C. Byrd,  A. K. Chakraborty,  
 G. K. L. Chan,  Chun-Min Chang,  Yunqing Chen,  C.-L. Cheng,  
 Siu Hung Chien,  D. M. Chipman,  D. L. Crittenden,  H. Dachsel,  
 R. J. Doerksen,  A. D. Dutoi,  R. G. Edgar,  J. Fosso-Tande,  
 L. Fusti-Molnar,  D. Ghosh,  A. Ghysels,  A. Golubeva-Zadorozhnaya,  
 J. Gonthier,  M. S. Gordon,  S. R. Gwaltney,  G. Hawkins,  J. E. Herr,  
 A. Heyden,  S. Hirata,  E. G. Hohenstein,  G. Kedziora,  F. J. Keil,  
 C. Kelley,  Jihan Kim,  R. A. King,  R. Z. Khaliullin,  P. P. Korambath,  
 W. Kurlancheek,  A. Laurent,  A. M. Lee,  M. S. Lee,  S. V. Levchenko,  
 Ching Yeh Lin,  D. Liotard,  E. Livshits,  R. C. Lochan,  I. Lotan,  
 L. A. Martinez-Martinez,  P. E. Maslen,  N. Nair,  D. P. O'Neill,  
 D. Neuhauser,  E. Neuscamman,  C. M. Oana,  R. Olivares-Amaya,  R. Olson,  
 T. M. Perrine,  B. Peters,  P. A. Pieniazek,  A. Prociuk,  Y. M. Rhee,  
 J. Ritchie,  M. A. Rohrdanz,  E. Rosta,  N. J. Russ,  H. F. Schaefer III,  
 M. W. Schmidt,  N. E. Schultz,  S. Sharma,  N. Shenvi,  C. D. Sherrill,  
 A. C. Simmonett,  A. Sodt,  T. Stein,  D. Stuck,  K. S. Thanthiriwatte,  
 V. Vanovschi,  L. Vogt,  Tao Wang,  A. Warshel,  M. A. Watson,  
 C. F. Williams,  Q. Wu,  X. Xu,  Jun Yang,  W. Zhang,  Yan Zhao

 Please cite Q-Chem as follows:
 Y. Shao et al., Mol. Phys. 113, 184-215 (2015)
 DOI: 10.1080/00268976.2014.952696

 Q-Chem 5.4.1 for Intel X86 EM64T Linux

 Parts of Q-Chem use Armadillo 9.800.1 (Horizon Scraper).
 http://arma.sourceforge.net/

 Q-Chem begins on Fri Jul  1 13:41:56 2022  

 Host: gadi-cpu-clx-1021.gadi.nci.org.au
0

     Scratch files written to /jobfs/49913273.gadi-pbs/qchem1008041//
 Processing $rem in /apps/qchem/5.4.1/config/preferences:
 Processing $rem in /home/561/yj5695/.qchemrc:
 Symmetry turned off for PCM/SM12/SMD calculation
 Method-specific promolecule density matrix will be built for SM12 calculation

 Checking the input file for inconsistencies... 	...done.

--------------------------------------------------------------
User input:
--------------------------------------------------------------
$molecule
-1  1
C -1.4386309909  0.6502928693 -0.8142874386
C -2.5564565941  0.7036644394 -1.6643352976
Cl -4.1734415615  0.7814836542 -1.013720022
C -2.4387433483  0.7057079579 -3.0392440531
H -3.3240126285  0.7534317628 -3.6660272926
C -1.1705454001  0.6460266488 -3.6487779299
C -0.0540415575  0.5925404037 -2.7919313716
S  1.5838000373  0.4967220364 -3.4435732292
C -0.1866756477  0.5993021945 -1.4043709244
H  0.6963074051  0.5660493393 -0.771860983
S -1.5613703875  0.6544720455  0.9943905807
O -2.3067726124 -0.6045538868  1.2872355616
O -0.1422759459  0.6294754789  1.431078117
N -2.2326037773  1.9657750019  1.5030355069
H -3.2414246775  1.8890207552  1.3596870672
N -1.05370316  0.7033063095 -5.0119961649
C  0.1911407695  0.2962256731 -5.6275794552
N  1.2750559385  1.0518322215 -4.9820211096
O  2.4668407585  1.4599258754 -2.7823883848
O  2.0386318331 -0.9013239091 -3.4353398471
H  0.1792599589  0.5754687284 -6.6787619011
H  2.1370841949  1.0412885241 -5.5353575802
H -1.8947526957  0.4933840203 -5.5398852518
H  0.349973089 -0.7877721441 -5.5466675967
$end

$rem
jobtype sp
exchange M062X
basis 6-31+G*
SMX_GAS_PHASE = TRUE
solvent_method sm12
$end

$smx
solvent water
charges mk
$end
--------------------------------------------------------------
 ----------------------------------------------------------------
             Standard Nuclear Orientation (Angstroms)
    I     Atom           X                Y                Z
 ----------------------------------------------------------------
    1      C      -1.4386309909     0.6502928693    -0.8142874386
    2      C      -2.5564565941     0.7036644394    -1.6643352976
    3      Cl     -4.1734415615     0.7814836542    -1.0137200220
    4      C      -2.4387433483     0.7057079579    -3.0392440531
    5      H      -3.3240126285     0.7534317628    -3.6660272926
    6      C      -1.1705454001     0.6460266488    -3.6487779299
    7      C      -0.0540415575     0.5925404037    -2.7919313716
    8      S       1.5838000373     0.4967220364    -3.4435732292
    9      C      -0.1866756477     0.5993021945    -1.4043709244
   10      H       0.6963074051     0.5660493393    -0.7718609830
   11      S      -1.5613703875     0.6544720455     0.9943905807
   12      O      -2.3067726124    -0.6045538868     1.2872355616
   13      O      -0.1422759459     0.6294754789     1.4310781170
   14      N      -2.2326037773     1.9657750019     1.5030355069
   15      H      -3.2414246775     1.8890207552     1.3596870672
   16      N      -1.0537031600     0.7033063095    -5.0119961649
   17      C       0.1911407695     0.2962256731    -5.6275794552
   18      N       1.2750559385     1.0518322215    -4.9820211096
   19      O       2.4668407585     1.4599258754    -2.7823883848
   20      O       2.0386318331    -0.9013239091    -3.4353398471
   21      H       0.1792599589     0.5754687284    -6.6787619011
   22      H       2.1370841949     1.0412885241    -5.5353575802
   23      H      -1.8947526957     0.4933840203    -5.5398852518
   24      H       0.3499730890    -0.7877721441    -5.5466675967
 ----------------------------------------------------------------
 Nuclear Repulsion Energy =        1719.40569177 hartrees
 There are       76 alpha and       76 beta electrons
 Requested basis set is 6-31+G(d)
 There are 102 shells and 349 basis functions

 Total QAlloc Memory Limit   2000 MB
 Mega-Array Size       188 MB
 MEM_STATIC part       192 MB
 A cutoff of  1.0D-08 yielded   3788 shell pairs
 There are     47317 function pairs
 Smallest overlap matrix eigenvalue = 5.70E-07

 Q-Chem warning in module stvman/mkSTV.C, line 323:

 Overlap eigenvalue is smaller than square root of threshold
 Use THRESH >= 12 to get rid of this warning

 Linear dependence detected in AO basis
 Tighter screening thresholds may be required for diffuse basis sets
 Use S2THRESH > 14 and THRESH = 14 in case of SCF convergence issues
 Number of orthogonalized atomic orbitals = 347
 Maximum deviation from orthogonality = 1.411E-10

 Scale SEOQF with 1.000000e-01/1.000000e-01/1.000000e-02

 Standard Electronic Orientation quadrupole field applied
 Nucleus-field energy     =     0.0000000180 hartrees
 ================ Generating on-the-fly Promolecule Density  ================
Attempting to make child job directory: /jobfs/49913273.gadi-pbs/qchem1008041//Frg1/
Attempting to make child job directory: /jobfs/49913273.gadi-pbs/qchem1008041//Frg2/
Attempting to make child job directory: /jobfs/49913273.gadi-pbs/qchem1008041//Frg3/
Attempting to make child job directory: /jobfs/49913273.gadi-pbs/qchem1008041//Frg4/
Attempting to make child job directory: /jobfs/49913273.gadi-pbs/qchem1008041//Frg5/
Attempting to make child job directory: /jobfs/49913273.gadi-pbs/qchem1008041//Frg6/
Creating input file /jobfs/49913273.gadi-pbs/qchem1008041/Frg1.input
using default PutDataFrgm: nothing
calling putenv with: QCSCRATCH=/jobfs/49913273.gadi-pbs/qchem1008041/ 
Spawning Job For Fragment 0
Done Job For Fragment 0
calling putenv with: QCSCRATCH=/jobfs/49913273.gadi-pbs 
calling putenv with: QCTHREADS=8 
Creating input file /jobfs/49913273.gadi-pbs/qchem1008041/Frg2.input
using default PutDataFrgm: nothing
calling putenv with: QCSCRATCH=/jobfs/49913273.gadi-pbs/qchem1008041/ 
Spawning Job For Fragment 1
Done Job For Fragment 1
calling putenv with: QCSCRATCH=/jobfs/49913273.gadi-pbs 
calling putenv with: QCTHREADS=8 
Creating input file /jobfs/49913273.gadi-pbs/qchem1008041/Frg3.input
using default PutDataFrgm: nothing
calling putenv with: QCSCRATCH=/jobfs/49913273.gadi-pbs/qchem1008041/ 
Spawning Job For Fragment 2
Done Job For Fragment 2
calling putenv with: QCSCRATCH=/jobfs/49913273.gadi-pbs 
calling putenv with: QCTHREADS=8 
Creating input file /jobfs/49913273.gadi-pbs/qchem1008041/Frg4.input
using default PutDataFrgm: nothing
calling putenv with: QCSCRATCH=/jobfs/49913273.gadi-pbs/qchem1008041/ 
Spawning Job For Fragment 3
Done Job For Fragment 3
calling putenv with: QCSCRATCH=/jobfs/49913273.gadi-pbs 
calling putenv with: QCTHREADS=8 
Creating input file /jobfs/49913273.gadi-pbs/qchem1008041/Frg5.input
using default PutDataFrgm: nothing
calling putenv with: QCSCRATCH=/jobfs/49913273.gadi-pbs/qchem1008041/ 
Spawning Job For Fragment 4
Done Job For Fragment 4
calling putenv with: QCSCRATCH=/jobfs/49913273.gadi-pbs 
calling putenv with: QCTHREADS=8 
Creating input file /jobfs/49913273.gadi-pbs/qchem1008041/Frg6.input
using default PutDataFrgm: nothing
calling putenv with: QCSCRATCH=/jobfs/49913273.gadi-pbs/qchem1008041/ 
Spawning Job For Fragment 5
Done Job For Fragment 5
calling putenv with: QCSCRATCH=/jobfs/49913273.gadi-pbs 
calling putenv with: QCTHREADS=8 
 Time for running child jobs:  CPU 1.01 s  wall 2.82 s
 ============= Method Specific Promolecule Density Constructed =============
 Guess from superposition of atomic densities
 Warning:  Energy on first SCF cycle will be non-variational
 SAD guess density has 151.000000 electrons

 -----------------------------------------------------------------------
  General SCF calculation program by
  Eric Jon Sundstrom, Paul Horn, Yuezhi Mao, Dmitri Zuev, Alec White,
  David Stuck, Shaama M.S., Shane Yost, Joonho Lee, David Small,
  Daniel Levine, Susi Lehtola, Hugh Burton, Evgeny Epifanovsky,
  Bang C. Huynh
 -----------------------------------------------------------------------
 Exchange:     0.5400 Hartree-Fock + 1.0000 M06-2X
 Correlation:  1.0000 M06-2X
 Using SG-3 standard quadrature grid
 using 8 threads for integral computing
 -------------------------------------------------------
 OpenMP Integral computing Module                
 Release: version 1.0, May 2013, Q-Chem Inc. Pittsburgh 
 -------------------------------------------------------
 A restricted SCF calculation will be
 performed using DIIS
 SCF converges when DIIS error is below 1.0e-05
 ---------------------------------------
  Cycle       Energy         DIIS error
 ---------------------------------------
    1   -1997.7668241284      4.17e-02  
    2   -1991.7379170862      6.01e-03  
    3   -1991.4089275267      8.34e-03  
    4   -1992.1937472650      8.94e-04  
    5   -1992.2030094003      3.77e-04  
    6   -1992.2048525250      8.33e-05  
    7   -1992.2049393299      3.41e-05  
    8   -1992.2049551867      1.07e-05  
    9   -1992.2049583111      4.09e-06  Convergence criterion met
 ---------------------------------------
 SCF time:   CPU 187.39s  wall 23.00s 
 SCF   energy in the final basis set =    -1992.2049583111
 Total energy in the final basis set =    -1992.2049583111
 Exchange:     0.5400 Hartree-Fock + 1.0000 M06-2X
 Correlation:  1.0000 M06-2X
 Using SG-3 standard quadrature grid
 
 SM12 calculation using Merz-Singh-Kollman charges
 Citation of the SM12 model:
 Marenich, A.V.; Cramer, C.J.; Truhlar, D.G.
 J. Chem. Theory Comput. 2013, 9, 609-612.
 iSolventCode=           1
 Solvent: water                                                           
 
  Building new vdw surfaces
         Merz-Kollman ESP Net Atomic Charges

     Atom                 Charge (a.u.)
  ----------------------------------------
      1 C                    -0.139579
      2 C                     0.127340
      3 Cl                   -0.107800
      4 C                    -0.373464
      5 H                     0.152373
      6 C                     0.405513
      7 C                    -0.006791
      8 S                     0.914698
      9 C                    -0.218280
     10 H                     0.237932
     11 S                     1.227110
     12 O                    -0.691725
     13 O                    -0.640453
     14 N                    -1.004384
     15 H                     0.367323
     16 N                    -0.639632
     17 C                     0.111676
     18 N                    -0.678594
     19 O                    -0.500515
     20 O                    -0.530963
     21 H                     0.135267
     22 H                     0.416058
     23 H                     0.371941
     24 H                     0.064947
  ----------------------------------------
  Sum of atomic charges =    -1.000000

  Related Dipole Moment =    10.2410 (X  2.2919 Y -3.4565 Z -9.3636)


 Charges (in A.U.) from Merz-Kollman fitting 
 -----------------------------------------------
 Center     Atomic                  MZ       
 Number     Number                  Charge
 -----------------------------------------------
    1          6                   -0.139579
    2          6                    0.127340
    3         17                   -0.107800
    4          6                   -0.373464
    5          1                    0.152373
    6          6                    0.405513
    7          6                   -0.006791
    8         16                    0.914698
    9          6                   -0.218280
   10          1                    0.237932
   11         16                    1.227110
   12          8                   -0.691725
   13          8                   -0.640453
   14          7                   -1.004384
   15          1                    0.367323
   16          7                   -0.639632
   17          6                    0.111676
   18          7                   -0.678594
   19          8                   -0.500515
   20          8                   -0.530963
   21          1                    0.135267
   22          1                    0.416058
   23          1                    0.371941
   24          1                    0.064947
 -----------------------------------------------
 A restricted SCF calculation will be
 performed using Roothaan-Hall, DIIS
 SCF converges when DIIS error is below 1.0e-05
 ---------------------------------------
  Cycle       Energy         DIIS error
 ---------------------------------------
         Merz-Kollman ESP Net Atomic Charges

     Atom                 Charge (a.u.)
  ----------------------------------------
      1 C                    -0.164228
      2 C                     0.085160
      3 Cl                   -0.090301
      4 C                    -0.333355
      5 H                     0.180093
      6 C                     0.449602
      7 C                    -0.006120
      8 S                     0.957862
      9 C                    -0.268857
     10 H                     0.241765
     11 S                     1.244243
     12 O                    -0.730076
     13 O                    -0.686803
     14 N                    -1.057718
     15 H                     0.387496
     16 N                    -0.596232
     17 C                     0.114307
     18 N                    -0.668464
     19 O                    -0.560527
     20 O                    -0.571112
     21 H                     0.171816
     22 H                     0.441557
     23 H                     0.393422
     24 H                     0.066471
  ----------------------------------------
  Sum of atomic charges =    -1.000000

  Related Dipole Moment =    14.7795 (X  1.2823 Y -3.3348 Z -14.3411)


 Charges (in A.U.) from Merz-Kollman fitting 
 -----------------------------------------------
 Center     Atomic                  MZ       
 Number     Number                  Charge
 -----------------------------------------------
    1          6                   -0.164228
    2          6                    0.085160
    3         17                   -0.090301
    4          6                   -0.333355
    5          1                    0.180093
    6          6                    0.449602
    7          6                   -0.006120
    8         16                    0.957862
    9          6                   -0.268857
   10          1                    0.241765
   11         16                    1.244243
   12          8                   -0.730076
   13          8                   -0.686803
   14          7                   -1.057718
   15          1                    0.387496
   16          7                   -0.596232
   17          6                    0.114307
   18          7                   -0.668464
   19          8                   -0.560527
   20          8                   -0.571112
   21          1                    0.171816
   22          1                    0.441557
   23          1                    0.393422
   24          1                    0.066471
 -----------------------------------------------
    1   -1992.2049567711      6.01e-04  Roothaan Step
 ---------------------------------------
  Cycle       Energy         DIIS error
 ---------------------------------------
         Merz-Kollman ESP Net Atomic Charges

     Atom                 Charge (a.u.)
  ----------------------------------------
      1 C                    -0.091737
      2 C                     0.123422
      3 Cl                   -0.105917
      4 C                    -0.413337
      5 H                     0.199855
      6 C                     0.423098
      7 C                    -0.026828
      8 S                     0.937980
      9 C                    -0.241263
     10 H                     0.242344
     11 S                     1.283986
     12 O                    -0.752367
     13 O                    -0.703765
     14 N                    -1.080862
     15 H                     0.381165
     16 N                    -0.623278
     17 C                     0.078432
     18 N                    -0.694814
     19 O                    -0.531926
     20 O                    -0.553202
     21 H                     0.195698
     22 H                     0.455291
     23 H                     0.413612
     24 H                     0.084412
  ----------------------------------------
  Sum of atomic charges =    -1.000000

  Related Dipole Moment =    14.5716 (X  1.9983 Y -3.5203 Z -13.9981)


 Charges (in A.U.) from Merz-Kollman fitting 
 -----------------------------------------------
 Center     Atomic                  MZ       
 Number     Number                  Charge
 -----------------------------------------------
    1          6                   -0.091737
    2          6                    0.123422
    3         17                   -0.105917
    4          6                   -0.413337
    5          1                    0.199855
    6          6                    0.423098
    7          6                   -0.026828
    8         16                    0.937980
    9          6                   -0.241263
   10          1                    0.242344
   11         16                    1.283986
   12          8                   -0.752367
   13          8                   -0.703765
   14          7                   -1.080862
   15          1                    0.381165
   16          7                   -0.623278
   17          6                    0.078432
   18          7                   -0.694814
   19          8                   -0.531926
   20          8                   -0.553202
   21          1                    0.195698
   22          1                    0.455291
   23          1                    0.413612
   24          1                    0.084412
 -----------------------------------------------
    1   -1992.1854799525      4.14e-04  
         Merz-Kollman ESP Net Atomic Charges

     Atom                 Charge (a.u.)
  ----------------------------------------
      1 C                    -0.146299
      2 C                     0.102196
      3 Cl                   -0.096979
      4 C                    -0.380866
      5 H                     0.193755
      6 C                     0.454678
      7 C                    -0.012147
      8 S                     0.965071
      9 C                    -0.258293
     10 H                     0.244069
     11 S                     1.287900
     12 O                    -0.750764
     13 O                    -0.705099
     14 N                    -1.081853
     15 H                     0.384671
     16 N                    -0.602239
     17 C                     0.079054
     18 N                    -0.675399
     19 O                    -0.557870
     20 O                    -0.570893
     21 H                     0.192584
     22 H                     0.449070
     23 H                     0.404846
     24 H                     0.080809
  ----------------------------------------
  Sum of atomic charges =    -1.000000

  Related Dipole Moment =    15.3187 (X  1.6690 Y -3.4370 Z -14.8345)


 Charges (in A.U.) from Merz-Kollman fitting 
 -----------------------------------------------
 Center     Atomic                  MZ       
 Number     Number                  Charge
 -----------------------------------------------
    1          6                   -0.146299
    2          6                    0.102196
    3         17                   -0.096979
    4          6                   -0.380866
    5          1                    0.193755
    6          6                    0.454678
    7          6                   -0.012147
    8         16                    0.965071
    9          6                   -0.258293
   10          1                    0.244069
   11         16                    1.287900
   12          8                   -0.750764
   13          8                   -0.705099
   14          7                   -1.081853
   15          1                    0.384671
   16          7                   -0.602239
   17          6                    0.079054
   18          7                   -0.675399
   19          8                   -0.557870
   20          8                   -0.570893
   21          1                    0.192584
   22          1                    0.449070
   23          1                    0.404846
   24          1                    0.080809
 -----------------------------------------------
    2   -1992.1862621856      4.52e-04  
         Merz-Kollman ESP Net Atomic Charges

     Atom                 Charge (a.u.)
  ----------------------------------------
      1 C                    -0.140876
      2 C                     0.110735
      3 Cl                   -0.099116
      4 C                    -0.384367
      5 H                     0.195282
      6 C                     0.453040
      7 C                    -0.021853
      8 S                     0.953410
      9 C                    -0.255211
     10 H                     0.244487
     11 S                     1.290894
     12 O                    -0.754387
     13 O                    -0.708421
     14 N                    -1.087917
     15 H                     0.386263
     16 N                    -0.601334
     17 C                     0.080406
     18 N                    -0.678797
     19 O                    -0.551589
     20 O                    -0.565890
     21 H                     0.195075
     22 H                     0.451769
     23 H                     0.406859
     24 H                     0.081539
  ----------------------------------------
  Sum of atomic charges =    -1.000000

  Related Dipole Moment =    15.4773 (X  1.6800 Y -3.4564 Z -14.9925)


 Charges (in A.U.) from Merz-Kollman fitting 
 -----------------------------------------------
 Center     Atomic                  MZ       
 Number     Number                  Charge
 -----------------------------------------------
    1          6                   -0.140876
    2          6                    0.110735
    3         17                   -0.099116
    4          6                   -0.384367
    5          1                    0.195282
    6          6                    0.453040
    7          6                   -0.021853
    8         16                    0.953410
    9          6                   -0.255211
   10          1                    0.244487
   11         16                    1.290894
   12          8                   -0.754387
   13          8                   -0.708421
   14          7                   -1.087917
   15          1                    0.386263
   16          7                   -0.601334
   17          6                    0.080406
   18          7                   -0.678797
   19          8                   -0.551589
   20          8                   -0.565890
   21          1                    0.195075
   22          1                    0.451769
   23          1                    0.406859
   24          1                    0.081539
 -----------------------------------------------
    3   -1992.1833593871      7.94e-05  
         Merz-Kollman ESP Net Atomic Charges

     Atom                 Charge (a.u.)
  ----------------------------------------
      1 C                    -0.143928
      2 C                     0.109175
      3 Cl                   -0.098444
      4 C                    -0.388108
      5 H                     0.196217
      6 C                     0.454270
      7 C                    -0.018663
      8 S                     0.958492
      9 C                    -0.253863
     10 H                     0.244565
     11 S                     1.292837
     12 O                    -0.755016
     13 O                    -0.708748
     14 N                    -1.088815
     15 H                     0.385654
     16 N                    -0.600871
     17 C                     0.076450
     18 N                    -0.678096
     19 O                    -0.553989
     20 O                    -0.568002
     21 H                     0.196803
     22 H                     0.451766
     23 H                     0.407428
     24 H                     0.082885
  ----------------------------------------
  Sum of atomic charges =    -1.000000

  Related Dipole Moment =    15.5478 (X  1.7251 Y -3.4631 Z -15.0588)


 Charges (in A.U.) from Merz-Kollman fitting 
 -----------------------------------------------
 Center     Atomic                  MZ       
 Number     Number                  Charge
 -----------------------------------------------
    1          6                   -0.143928
    2          6                    0.109175
    3         17                   -0.098444
    4          6                   -0.388108
    5          1                    0.196217
    6          6                    0.454270
    7          6                   -0.018663
    8         16                    0.958492
    9          6                   -0.253863
   10          1                    0.244565
   11         16                    1.292837
   12          8                   -0.755016
   13          8                   -0.708748
   14          7                   -1.088815
   15          1                    0.385654
   16          7                   -0.600871
   17          6                    0.076450
   18          7                   -0.678096
   19          8                   -0.553989
   20          8                   -0.568002
   21          1                    0.196803
   22          1                    0.451766
   23          1                    0.407428
   24          1                    0.082885
 -----------------------------------------------
    4   -1992.1823195418      4.44e-05  
    5   -1992.1818100418      9.06e-06  Convergence criterion met
 ---------------------------------------
 SCF time:   CPU 147.60s  wall 19.00s 
(0)  E-EN(g) gas-phase elect-nuc energy                -1992.204958311 a.u.
(1)  E-EN(liq) elect-nuc energy of solute              -1992.181810042 a.u.
(2)  G-P(liq) polarization free energy of solvation           -94.5817 kcal/mol
(3)  G-ENP(liq) elect-nuc-pol free energy of system    -1992.332535605 a.u.
(4)  G-CDS(liq) cavity-dispersion-solvent structure 
     free energy                                                2.1282 kcal/mol
(5)  G-P-CDS(liq) = G-P(liq) + G-CDS(liq) = (2) + (4)         -92.4535 kcal/mol
(6)  G-S(liq) free energy of system = (1) + (5)        -1992.329144064 a.u.
(7)  DeltaE-EN(liq) elect-nuc reorganization
     energy of solute molecule (7) = (1) - (0)                 14.5258 kcal/mol
(8)  DeltaG-ENP(liq) elect-nuc-pol free energy
     of solvation (8) = (3) - (0)                             -80.0560 kcal/mol
(9)  DeltaG-S(liq) free energy of  solvation
     (9) = (6) - (0)                                          -77.9277 kcal/mol
 SCF   energy in the final basis set =    -1992.3291440644
 Total energy in the final basis set =    -1992.3291440644
 
 --------------------------------------------------------------
 
                    Orbital Energies (a.u.)
 --------------------------------------------------------------
 
 Alpha MOs
 -- Occupied --
******** -90.1800 -90.1420 -19.6634 -19.6622 -19.6275 -19.6259 -14.8179
-14.8081 -14.7296 -10.6528 -10.6460 -10.6428 -10.6097 -10.6004 -10.5989
-10.5904  -9.8419  -8.4948  -8.4544  -7.5662  -7.5597  -7.5594  -6.4172
 -6.4163  -6.4157  -6.3769  -6.3762  -6.3756  -1.2624  -1.2166  -1.1436
 -1.1136  -1.1010  -1.0443  -1.0192  -0.9742  -0.9674  -0.8903  -0.8820
 -0.8049  -0.7766  -0.7488  -0.7115  -0.6678  -0.6505  -0.6391  -0.6065
 -0.5959  -0.5936  -0.5706  -0.5657  -0.5585  -0.5395  -0.5360  -0.5269
 -0.5199  -0.5102  -0.4925  -0.4708  -0.4489  -0.4433  -0.4347  -0.4240
 -0.4167  -0.4055  -0.4000  -0.3987  -0.3900  -0.3836  -0.3661  -0.3608
 -0.3380  -0.3307  -0.3170  -0.2817
 -- Virtual --
 -0.0302  -0.0282  -0.0127  -0.0073   0.0001   0.0035   0.0062   0.0086
  0.0179   0.0272   0.0320   0.0381   0.0510   0.0547   0.0555   0.0605
  0.0714   0.0732   0.0757   0.0837   0.0909   0.0950   0.0987   0.1048
  0.1067   0.1122   0.1176   0.1214   0.1269   0.1314   0.1364   0.1413
  0.1470   0.1497   0.1562   0.1631   0.1654   0.1721   0.1749   0.1778
  0.1809   0.1881   0.1893   0.1925   0.1990   0.2042   0.2108   0.2160
  0.2184   0.2238   0.2257   0.2302   0.2380   0.2396   0.2415   0.2510
  0.2531   0.2558   0.2645   0.2708   0.2716   0.2776   0.2786   0.2816
  0.2851   0.2913   0.2949   0.2974   0.3005   0.3030   0.3151   0.3181
  0.3231   0.3276   0.3310   0.3359   0.3406   0.3508   0.3584   0.3617
  0.3751   0.3790   0.3850   0.3915   0.3936   0.4102   0.4147   0.4302
  0.4326   0.4446   0.4700   0.4839   0.5170   0.5499   0.5784   0.5965
  0.6035   0.6209   0.6460   0.6514   0.6518   0.6663   0.6719   0.6808
  0.6973   0.7068   0.7119   0.7223   0.7288   0.7365   0.7463   0.7551
  0.7641   0.7752   0.7873   0.8088   0.8216   0.8387   0.8635   0.8847
  0.8871   0.9046   0.9233   0.9306   0.9407   0.9531   0.9603   0.9778
  1.0011   1.0033   1.0139   1.0212   1.0353   1.0406   1.0573   1.0690
  1.0723   1.0782   1.0873   1.1049   1.1132   1.1163   1.1262   1.1357
  1.1446   1.1603   1.1647   1.1681   1.1851   1.1889   1.2021   1.2055
  1.2169   1.2283   1.2500   1.2664   1.2724   1.3033   1.3229   1.3316
  1.3352   1.3507   1.3611   1.3741   1.3794   1.3848   1.3872   1.3963
  1.3989   1.4065   1.4200   1.4480   1.4629   1.4650   1.4816   1.4962
  1.5060   1.5249   1.5287   1.5384   1.5682   1.5737   1.5994   1.6076
  1.6274   1.6895   1.7061   1.7506   1.7596   1.7677   1.7986   1.8026
  1.8158   1.8338   1.8366   1.8429   1.8482   1.8646   1.8753   1.8812
  1.8932   1.9024   1.9109   1.9507   1.9592   1.9758   1.9818   2.0008
  2.0106   2.0227   2.0257   2.0495   2.0744   2.0858   2.1058   2.1317
  2.1458   2.1686   2.1790   2.1916   2.2077   2.2187   2.2337   2.2536
  2.2764   2.2915   2.3037   2.3150   2.3403   2.3578   2.3844   2.4125
  2.4137   2.4371   2.5167   2.5551   2.5683   2.6161   2.6225   2.6379
  2.6849   2.7025   2.7589   2.7820   2.7929   2.8208   2.8717   2.8864
  2.9361   2.9657   2.9709   2.9988   3.1655   3.3172   4.0040   4.0254
  4.0786   4.0897   4.1925   4.2232   4.2427   4.2776   4.3015   4.3413
  4.3600   4.4035   4.4244   4.4662   4.4987   4.5365   4.7277
 --------------------------------------------------------------
 
          Ground-State Mulliken Net Atomic Charges

     Atom                 Charge (a.u.)
  ----------------------------------------
      1 C                    -6.853540
      2 C                     1.516562
      3 Cl                    0.208602
      4 C                     0.005498
      5 H                     0.312932
      6 C                     4.019838
      7 C                     0.079407
      8 S                     1.871232
      9 C                    -0.527941
     10 H                     0.280450
     11 S                     0.374219
     12 O                    -0.696741
     13 O                    -0.913560
     14 N                    -0.964404
     15 H                     0.403150
     16 N                    -0.363638
     17 C                     0.492404
     18 N                    -0.622132
     19 O                    -0.718649
     20 O                    -0.559019
     21 H                     0.328157
     22 H                     0.544600
     23 H                     0.515752
     24 H                     0.266824
  ----------------------------------------
  Sum of atomic charges =    -1.000000

         Merz-Kollman ESP Net Atomic Charges

     Atom                 Charge (a.u.)
  ----------------------------------------
      1 C                    -0.143946
      2 C                     0.110514
      3 Cl                   -0.099024
      4 C                    -0.388801
      5 H                     0.196204
      6 C                     0.455312
      7 C                    -0.019578
      8 S                     0.958322
      9 C                    -0.254599
     10 H                     0.244778
     11 S                     1.296017
     12 O                    -0.756048
     13 O                    -0.709829
     14 N                    -1.090041
     15 H                     0.385661
     16 N                    -0.600219
     17 C                     0.075045
     18 N                    -0.677814
     19 O                    -0.553764
     20 O                    -0.567815
     21 H                     0.197180
     22 H                     0.451767
     23 H                     0.407375
     24 H                     0.083303
  ----------------------------------------
  Sum of atomic charges =    -1.000000

  Related Dipole Moment =    15.5642 (X  1.7277 Y -3.4646 Z -15.0750)

 -----------------------------------------------------------------
                    Cartesian Multipole Moments
 -----------------------------------------------------------------
    Charge (ESU x 10^10)
                -4.8032
    Dipole Moment (Debye)
         X       1.6843      Y      -3.5106      Z     -15.0282
       Tot      15.5244
    Quadrupole Moments (Debye-Ang)
        XX    -143.9270     XY       1.5888     YY    -145.4905
        XZ      26.6796     YZ      -8.3988     ZZ     -75.1002
    Octopole Moments (Debye-Ang^2)
       XXX     296.4382    XXY     -76.2595    XYY     112.6458
       YYY    -272.6402    XXZ     196.3718    XYZ       1.4699
       YYZ     238.3073    XZZ      75.8696    YZZ     -68.9354
       ZZZ     216.8331
    Hexadecapole Moments (Debye-Ang^3)
      XXXX   -3419.8510   XXXY     214.1141   XXYY    -751.7756
      XYYY     302.0887   YYYY    -801.6109   XXXZ     342.2075
      XXYZ      91.6853   XYYZ     137.6100   YYYZ     360.5439
      XXZZ   -1465.9930   XYZZ     150.4476   YYZZ   -1346.0462
      XZZZ     338.5996   YZZZ     163.2305   ZZZZ   -3624.9689
 -----------------------------------------------------------------
 Total job time:  45.49s(wall), 340.62s(cpu) 
 Fri Jul  1 13:42:42 2022

        *************************************************************
        *                                                           *
        *  Thank you very much for using Q-Chem.  Have a nice day.  *
        *                                                           *
        *************************************************************


