                  Welcome to Q-Chem
     A Quantum Leap Into The Future Of Chemistry


 Q-Chem 5.4 (devel), Q-Chem, Inc., Pleasanton, CA (2021)

 E. Epifanovsky,  A. T. B. Gilbert,  Xintian Feng,  Joonho Lee,  Yuezhi Mao,  
 N. Mardirossian,  P. Pokhilko,  A. White,  M. Wormit,  M. P. Coons,  
 A. L. Dempwolff,  Zhengting Gan,  D. Hait,  P. R. Horn,  L. D. Jacobson,  
 I. Kaliman,  J. Kussmann,  A. W. Lange,  Ka Un Lao,  D. S. Levine,  Jie Liu,  
 S. C. McKenzie,  A. F. Morrison,  K. Nanda,  F. Plasser,  D. R. Rehn,  
 M. L. Vidal,  Zhi-Qiang You,  Ying Zhu,  B. Alam,  B. Albrecht,  
 A. Aldossary,  E. Alguire,  J. H. Andersen,  D. Barton,  K. Begam,  A. Behn,  
 Y. A. Bernard,  E. J. Berquist,  H. Burton,  A. Carreras,  K. Carter-Fenk,  
 R. Chakraborty,  A. D. Chien,  K. D. Closser,  V. Cofer-Shabica,  
 S. Dasgupta,  Jia Deng,  M. de Wergifosse,  M. Diedenhofen,  Hainam Do,  
 S. Ehlert,  Po-Tung Fang,  S. Fatehi,  Qingguo Feng,  T. Friedhoff,  
 J. Gayvert,  Qinghui Ge,  G. Gidofalvi,  M. Goldey,  J. Gomes,  
 C. Gonzalez-Espinoza,  S. Gulania,  A. Gunina,  M. W. D. Hanson-Heine,  
 P. H. P. Harbach,  A. W. Hauser,  M. F. Herbst,  M. Hernandez Vera,  
 M. Hodecker,  Z. C. Holden,  S. Houck,  Xunkun Huang,  Kerwin Hui,  
 B. C. Huynh,  M. Ivanov,  Hyunjun Ji,  Hanjie Jiang,  B. Kaduk,  S. Kaehler,  
 K. Khistyaev,  Jaehoon Kim,  P. Klunzinger,  Z. Koczor-Benda,  
 Joong Hoon Koh,  D. Kosenkov,  L. Koulias,  T. Kowalczyk,  C. M. Krauter,  
 K. Kue,  A. Kunitsa,  T. Kus,  A. Landau,  K. V. Lawler,  D. Lefrancois,  
 S. Lehtola,  Rain Li,  Yi-Pei Li,  Jiashu Liang,  M. Liebenthal,  
 Hung-Hsuan Lin,  You-Sheng Lin,  Fenglai Liu,  Kuan-Yu Liu,  
 M. Loipersberger,  A. Luenser,  A. Manjanath,  P. Manohar,  E. Mansoor,  
 S. F. Manzer,  Shan-Ping Mao,  A. V. Marenich,  T. Markovich,  S. Mason,  
 S. A. Maurer,  P. F. McLaughlin,  M. F. S. J. Menger,  J.-M. Mewes,  
 S. A. Mewes,  P. Morgante,  J. W. Mullinax,  K. J. Oosterbaan,  G. Paran,  
 Alexander C. Paul,  Suranjan K. Paul,  F. Pavosevic,  Zheng Pei,  S. Prager,  
 E. I. Proynov,  E. Ramos,  B. Rana,  A. E. Rask,  A. Rettig,  R. M. Richard,  
 F. Rob,  E. Rossomme,  T. Scheele,  M. Scheurer,  M. Schneider,  
 N. Sergueev,  S. M. Sharada,  W. Skomorowski,  D. W. Small,  C. J. Stein,  
 Yu-Chuan Su,  E. J. Sundstrom,  Zhen Tao,  J. Thirman,  T. Tsuchimochi,  
 N. M. Tubman,  S. P. Veccham,  O. Vydrov,  J. Wenzel,  J. Witte,  A. Yamada,  
 Kun Yao,  S. Yeganeh,  S. R. Yost,  A. Zech,  Igor Ying Zhang,  Xing Zhang,  
 Yu Zhang,  D. Zuev,  A. Aspuru-Guzik,  A. T. Bell,  N. A. Besley,  
 K. B. Bravaya,  B. R. Brooks,  D. Casanova,  Jeng-Da Chai,  S. Coriani,  
 C. J. Cramer,  A. E. DePrince, III,  R. A. DiStasio Jr.,  A. Dreuw,  
 B. D. Dunietz,  T. R. Furlani,  W. A. Goddard III,  S. Grimme,  
 S. Hammes-Schiffer,  T. Head-Gordon,  W. J. Hehre,  Chao-Ping Hsu,  
 T.-C. Jagau,  Yousung Jung,  A. Klamt,  Jing Kong,  D. S. Lambrecht,  
 WanZhen Liang,  N. J. Mayhall,  C. W. McCurdy,  J. B. Neaton,  
 C. Ochsenfeld,  J. A. Parkhill,  R. Peverati,  V. A. Rassolov,  Yihan Shao,  
 L. V. Slipchenko,  T. Stauch,  R. P. Steele,  J. E. Subotnik,  
 A. J. W. Thom,  A. Tkatchenko,  D. G. Truhlar,  T. Van Voorhis,  
 T. A. Wesolowski,  K. B. Whaley,  H. L. Woodcock III,  P. M. Zimmerman,  
 S. Faraji,  P. M. W. Gill,  M. Head-Gordon,  J. M. Herbert,  A. I. Krylov

 Additional authors for Version 5.4.1: 
 S. Kotaru,  Shaozhi Li,  Xiangyuan Li,  F. Matz,  A. Molle,  Haisheng Ren,  
 Yingli Su,  Hung-Yi Tsai,  C. Utku,  Fang Wang

 Contributors to earlier versions of Q-Chem not listed above: 
 R. D. Adamson,  B. Austin,  R. Baer,  J. Baker,  G. J. O. Beran,  
 K. Brandhorst,  S. T. Brown,  E. F. C. Byrd,  A. K. Chakraborty,  
 G. K. L. Chan,  Chun-Min Chang,  Yunqing Chen,  C.-L. Cheng,  
 Siu Hung Chien,  D. M. Chipman,  D. L. Crittenden,  H. Dachsel,  
 R. J. Doerksen,  A. D. Dutoi,  R. G. Edgar,  J. Fosso-Tande,  
 L. Fusti-Molnar,  D. Ghosh,  A. Ghysels,  A. Golubeva-Zadorozhnaya,  
 J. Gonthier,  M. S. Gordon,  S. R. Gwaltney,  G. Hawkins,  J. E. Herr,  
 A. Heyden,  S. Hirata,  E. G. Hohenstein,  G. Kedziora,  F. J. Keil,  
 C. Kelley,  Jihan Kim,  R. A. King,  R. Z. Khaliullin,  P. P. Korambath,  
 W. Kurlancheek,  A. Laurent,  A. M. Lee,  M. S. Lee,  S. V. Levchenko,  
 Ching Yeh Lin,  D. Liotard,  E. Livshits,  R. C. Lochan,  I. Lotan,  
 L. A. Martinez-Martinez,  P. E. Maslen,  N. Nair,  D. P. O'Neill,  
 D. Neuhauser,  E. Neuscamman,  C. M. Oana,  R. Olivares-Amaya,  R. Olson,  
 T. M. Perrine,  B. Peters,  P. A. Pieniazek,  A. Prociuk,  Y. M. Rhee,  
 J. Ritchie,  M. A. Rohrdanz,  E. Rosta,  N. J. Russ,  H. F. Schaefer III,  
 M. W. Schmidt,  N. E. Schultz,  S. Sharma,  N. Shenvi,  C. D. Sherrill,  
 A. C. Simmonett,  A. Sodt,  T. Stein,  D. Stuck,  K. S. Thanthiriwatte,  
 V. Vanovschi,  L. Vogt,  Tao Wang,  A. Warshel,  M. A. Watson,  
 C. F. Williams,  Q. Wu,  X. Xu,  Jun Yang,  W. Zhang,  Yan Zhao

 Please cite Q-Chem as follows:
 Y. Shao et al., Mol. Phys. 113, 184-215 (2015)
 DOI: 10.1080/00268976.2014.952696

 Q-Chem 5.4.1 for Intel X86 EM64T Linux

 Parts of Q-Chem use Armadillo 9.800.1 (Horizon Scraper).
 http://arma.sourceforge.net/

 Q-Chem begins on Fri Jul  1 13:49:17 2022  

 Host: gadi-cpu-clx-2039.gadi.nci.org.au
0

     Scratch files written to /jobfs/49914097.gadi-pbs/qchem1771271//
 Processing $rem in /apps/qchem/5.4.1/config/preferences:
 Processing $rem in /home/561/yj5695/.qchemrc:
 Symmetry turned off for PCM/SM12/SMD calculation
 Method-specific promolecule density matrix will be built for SM12 calculation

 Checking the input file for inconsistencies... 	...done.

--------------------------------------------------------------
User input:
--------------------------------------------------------------
$molecule
-1  1
C -1.554987  0.921081 -0.893991
C -2.680999  0.739647 -1.713231
Cl -4.29416  0.767545 -1.047334
C -2.574363  0.515889 -3.075194
H -3.461964  0.372524 -3.683816
C -1.304933  0.465279 -3.665416
C -0.167192  0.655823 -2.862558
C  1.168328  0.685794 -3.498682
C -0.304394  0.879198 -1.493695
S -1.665463  1.195187  0.89477
O -0.245402  1.300819  1.314877
O -2.42233  2.47712  1.001911
N -2.320017 -0.030029  1.604155
H -3.330501  0.014862  1.458916
N -1.14951  0.291355 -5.028261
C  0.084363 -0.30993 -5.47541
N  1.184438  0.368262 -4.82181
H -1.979262 -0.010467 -5.530631
O  2.193099  1.03162 -2.901661
H  0.585458  1.02852 -0.891117
H  2.0962  0.332693 -5.268629
C  0.131134 -1.830535 -5.175951
H  0.178241 -0.172063 -6.554021
H  0.066708 -2.040411 -4.107814
Cl  1.670012 -2.517722 -5.763783
Cl -1.245095 -2.647272 -5.967164
$end

$rem
jobtype sp
exchange M062X
basis 6-31+G*
SMX_GAS_PHASE = TRUE
solvent_method sm12
$end

$smx
solvent water
charges mk
$end
--------------------------------------------------------------
 ----------------------------------------------------------------
             Standard Nuclear Orientation (Angstroms)
    I     Atom           X                Y                Z
 ----------------------------------------------------------------
    1      C      -1.5549870000     0.9210810000    -0.8939910000
    2      C      -2.6809990000     0.7396470000    -1.7132310000
    3      Cl     -4.2941600000     0.7675450000    -1.0473340000
    4      C      -2.5743630000     0.5158890000    -3.0751940000
    5      H      -3.4619640000     0.3725240000    -3.6838160000
    6      C      -1.3049330000     0.4652790000    -3.6654160000
    7      C      -0.1671920000     0.6558230000    -2.8625580000
    8      C       1.1683280000     0.6857940000    -3.4986820000
    9      C      -0.3043940000     0.8791980000    -1.4936950000
   10      S      -1.6654630000     1.1951870000     0.8947700000
   11      O      -0.2454020000     1.3008190000     1.3148770000
   12      O      -2.4223300000     2.4771200000     1.0019110000
   13      N      -2.3200170000    -0.0300290000     1.6041550000
   14      H      -3.3305010000     0.0148620000     1.4589160000
   15      N      -1.1495100000     0.2913550000    -5.0282610000
   16      C       0.0843630000    -0.3099300000    -5.4754100000
   17      N       1.1844380000     0.3682620000    -4.8218100000
   18      H      -1.9792620000    -0.0104670000    -5.5306310000
   19      O       2.1930990000     1.0316200000    -2.9016610000
   20      H       0.5854580000     1.0285200000    -0.8911170000
   21      H       2.0962000000     0.3326930000    -5.2686290000
   22      C       0.1311340000    -1.8305350000    -5.1759510000
   23      H       0.1782410000    -0.1720630000    -6.5540210000
   24      H       0.0667080000    -2.0404110000    -4.1078140000
   25      Cl      1.6700120000    -2.5177220000    -5.7637830000
   26      Cl     -1.2450950000    -2.6472720000    -5.9671640000
 ----------------------------------------------------------------
 Nuclear Repulsion Energy =        2028.67871854 hartrees
 There are       87 alpha and       87 beta electrons
 Requested basis set is 6-31+G(d)
 There are 113 shells and 391 basis functions

 Total QAlloc Memory Limit   2000 MB
 Mega-Array Size       188 MB
 MEM_STATIC part       192 MB
 A cutoff of  1.0D-08 yielded   4488 shell pairs
 There are     56482 function pairs
 Smallest overlap matrix eigenvalue = 3.67E-07

 Q-Chem warning in module stvman/mkSTV.C, line 323:

 Overlap eigenvalue is smaller than square root of threshold
 Use THRESH >= 12 to get rid of this warning

 Linear dependence detected in AO basis
 Tighter screening thresholds may be required for diffuse basis sets
 Use S2THRESH > 14 and THRESH = 14 in case of SCF convergence issues
 Number of orthogonalized atomic orbitals = 389
 Maximum deviation from orthogonality = 1.371E-10

 Scale SEOQF with 1.000000e-01/1.000000e-01/1.000000e-02

 Standard Electronic Orientation quadrupole field applied
 Nucleus-field energy     =     0.0000000270 hartrees
 ================ Generating on-the-fly Promolecule Density  ================
Attempting to make child job directory: /jobfs/49914097.gadi-pbs/qchem1771271//Frg1/
Attempting to make child job directory: /jobfs/49914097.gadi-pbs/qchem1771271//Frg2/
Attempting to make child job directory: /jobfs/49914097.gadi-pbs/qchem1771271//Frg3/
Attempting to make child job directory: /jobfs/49914097.gadi-pbs/qchem1771271//Frg4/
Attempting to make child job directory: /jobfs/49914097.gadi-pbs/qchem1771271//Frg5/
Attempting to make child job directory: /jobfs/49914097.gadi-pbs/qchem1771271//Frg6/
Creating input file /jobfs/49914097.gadi-pbs/qchem1771271/Frg1.input
using default PutDataFrgm: nothing
calling putenv with: QCSCRATCH=/jobfs/49914097.gadi-pbs/qchem1771271/ 
Spawning Job For Fragment 0
Done Job For Fragment 0
calling putenv with: QCSCRATCH=/jobfs/49914097.gadi-pbs 
calling putenv with: QCTHREADS=8 
Creating input file /jobfs/49914097.gadi-pbs/qchem1771271/Frg2.input
using default PutDataFrgm: nothing
calling putenv with: QCSCRATCH=/jobfs/49914097.gadi-pbs/qchem1771271/ 
Spawning Job For Fragment 1
Done Job For Fragment 1
calling putenv with: QCSCRATCH=/jobfs/49914097.gadi-pbs 
calling putenv with: QCTHREADS=8 
Creating input file /jobfs/49914097.gadi-pbs/qchem1771271/Frg3.input
using default PutDataFrgm: nothing
calling putenv with: QCSCRATCH=/jobfs/49914097.gadi-pbs/qchem1771271/ 
Spawning Job For Fragment 2
Done Job For Fragment 2
calling putenv with: QCSCRATCH=/jobfs/49914097.gadi-pbs 
calling putenv with: QCTHREADS=8 
Creating input file /jobfs/49914097.gadi-pbs/qchem1771271/Frg4.input
using default PutDataFrgm: nothing
calling putenv with: QCSCRATCH=/jobfs/49914097.gadi-pbs/qchem1771271/ 
Spawning Job For Fragment 3
Done Job For Fragment 3
calling putenv with: QCSCRATCH=/jobfs/49914097.gadi-pbs 
calling putenv with: QCTHREADS=8 
Creating input file /jobfs/49914097.gadi-pbs/qchem1771271/Frg5.input
using default PutDataFrgm: nothing
calling putenv with: QCSCRATCH=/jobfs/49914097.gadi-pbs/qchem1771271/ 
Spawning Job For Fragment 4
Done Job For Fragment 4
calling putenv with: QCSCRATCH=/jobfs/49914097.gadi-pbs 
calling putenv with: QCTHREADS=8 
Creating input file /jobfs/49914097.gadi-pbs/qchem1771271/Frg6.input
using default PutDataFrgm: nothing
calling putenv with: QCSCRATCH=/jobfs/49914097.gadi-pbs/qchem1771271/ 
Spawning Job For Fragment 5
Done Job For Fragment 5
calling putenv with: QCSCRATCH=/jobfs/49914097.gadi-pbs 
calling putenv with: QCTHREADS=8 
 Time for running child jobs:  CPU 0.90 s  wall 2.28 s
 ============= Method Specific Promolecule Density Constructed =============
 Guess from superposition of atomic densities
 Warning:  Energy on first SCF cycle will be non-variational
 SAD guess density has 173.000000 electrons

 -----------------------------------------------------------------------
  General SCF calculation program by
  Eric Jon Sundstrom, Paul Horn, Yuezhi Mao, Dmitri Zuev, Alec White,
  David Stuck, Shaama M.S., Shane Yost, Joonho Lee, David Small,
  Daniel Levine, Susi Lehtola, Hugh Burton, Evgeny Epifanovsky,
  Bang C. Huynh
 -----------------------------------------------------------------------
 Exchange:     0.5400 Hartree-Fock + 1.0000 M06-2X
 Correlation:  1.0000 M06-2X
 Using SG-3 standard quadrature grid
 using 8 threads for integral computing
 -------------------------------------------------------
 OpenMP Integral computing Module                
 Release: version 1.0, May 2013, Q-Chem Inc. Pittsburgh 
 -------------------------------------------------------
 A restricted SCF calculation will be
 performed using DIIS
 SCF converges when DIIS error is below 1.0e-05
 ---------------------------------------
  Cycle       Energy         DIIS error
 ---------------------------------------
    1   -2521.0809068765      3.70e-02  
    2   -2515.0658336602      4.86e-03  
    3   -2514.7344683840      7.02e-03  
    4   -2515.4593871021      8.86e-04  
    5   -2515.4701217939      4.19e-04  
    6   -2515.4726636515      9.90e-05  
    7   -2515.4728282210      3.95e-05  
    8   -2515.4728547014      1.30e-05  
    9   -2515.4728585286      5.63e-06  Convergence criterion met
 ---------------------------------------
 SCF time:   CPU 245.69s  wall 30.00s 
 SCF   energy in the final basis set =    -2515.4728585286
 Total energy in the final basis set =    -2515.4728585286
 Exchange:     0.5400 Hartree-Fock + 1.0000 M06-2X
 Correlation:  1.0000 M06-2X
 Using SG-3 standard quadrature grid
 
 SM12 calculation using Merz-Singh-Kollman charges
 Citation of the SM12 model:
 Marenich, A.V.; Cramer, C.J.; Truhlar, D.G.
 J. Chem. Theory Comput. 2013, 9, 609-612.
 iSolventCode=           1
 Solvent: water                                                           
 
  Building new vdw surfaces
         Merz-Kollman ESP Net Atomic Charges

     Atom                 Charge (a.u.)
  ----------------------------------------
      1 C                    -0.053574
      2 C                     0.039613
      3 Cl                   -0.092184
      4 C                    -0.348694
      5 H                     0.162578
      6 C                     0.396498
      7 C                     0.023460
      8 C                     0.613605
      9 C                    -0.279948
     10 S                     1.159167
     11 O                    -0.623124
     12 O                    -0.665691
     13 N                    -1.003307
     14 H                     0.367996
     15 N                    -0.654173
     16 C                     0.027583
     17 N                    -0.523388
     18 H                     0.394686
     19 O                    -0.582740
     20 H                     0.224763
     21 H                     0.356085
     22 C                    -0.497568
     23 H                     0.244614
     24 H                     0.356194
     25 Cl                   -0.014229
     26 Cl                   -0.028220
  ----------------------------------------
  Sum of atomic charges =    -1.000000

  Related Dipole Moment =     9.9343 (X  4.2856 Y -6.0962 Z -6.5696)


 Charges (in A.U.) from Merz-Kollman fitting 
 -----------------------------------------------
 Center     Atomic                  MZ       
 Number     Number                  Charge
 -----------------------------------------------
    1          6                   -0.053574
    2          6                    0.039613
    3         17                   -0.092184
    4          6                   -0.348694
    5          1                    0.162578
    6          6                    0.396498
    7          6                    0.023460
    8          6                    0.613605
    9          6                   -0.279948
   10         16                    1.159167
   11          8                   -0.623124
   12          8                   -0.665691
   13          7                   -1.003307
   14          1                    0.367996
   15          7                   -0.654173
   16          6                    0.027583
   17          7                   -0.523388
   18          1                    0.394686
   19          8                   -0.582740
   20          1                    0.224763
   21          1                    0.356085
   22          6                   -0.497568
   23          1                    0.244614
   24          1                    0.356194
   25         17                   -0.014229
   26         17                   -0.028220
 -----------------------------------------------
 A restricted SCF calculation will be
 performed using Roothaan-Hall, DIIS
 SCF converges when DIIS error is below 1.0e-05
 ---------------------------------------
  Cycle       Energy         DIIS error
 ---------------------------------------
         Merz-Kollman ESP Net Atomic Charges

     Atom                 Charge (a.u.)
  ----------------------------------------
      1 C                    -0.089205
      2 C                    -0.001469
      3 Cl                   -0.080801
      4 C                    -0.311370
      5 H                     0.186837
      6 C                     0.438239
      7 C                     0.055219
      8 C                     0.640419
      9 C                    -0.319143
     10 S                     1.179191
     11 O                    -0.670662
     12 O                    -0.706009
     13 N                    -1.058725
     14 H                     0.387808
     15 N                    -0.604194
     16 C                     0.026954
     17 N                    -0.483105
     18 H                     0.402757
     19 O                    -0.675778
     20 H                     0.220382
     21 H                     0.371036
     22 C                    -0.479483
     23 H                     0.262324
     24 H                     0.350429
     25 Cl                   -0.017278
     26 Cl                   -0.024371
  ----------------------------------------
  Sum of atomic charges =    -1.000000

  Related Dipole Moment =    14.0129 (X  3.5789 Y -7.2044 Z -11.4738)


 Charges (in A.U.) from Merz-Kollman fitting 
 -----------------------------------------------
 Center     Atomic                  MZ       
 Number     Number                  Charge
 -----------------------------------------------
    1          6                   -0.089205
    2          6                   -0.001469
    3         17                   -0.080801
    4          6                   -0.311370
    5          1                    0.186837
    6          6                    0.438239
    7          6                    0.055219
    8          6                    0.640419
    9          6                   -0.319143
   10         16                    1.179191
   11          8                   -0.670662
   12          8                   -0.706009
   13          7                   -1.058725
   14          1                    0.387808
   15          7                   -0.604194
   16          6                    0.026954
   17          7                   -0.483105
   18          1                    0.402757
   19          8                   -0.675778
   20          1                    0.220382
   21          1                    0.371036
   22          6                   -0.479483
   23          1                    0.262324
   24          1                    0.350429
   25         17                   -0.017278
   26         17                   -0.024371
 -----------------------------------------------
    1   -2515.4728604205      5.22e-04  Roothaan Step
 ---------------------------------------
  Cycle       Energy         DIIS error
 ---------------------------------------
         Merz-Kollman ESP Net Atomic Charges

     Atom                 Charge (a.u.)
  ----------------------------------------
      1 C                    -0.007271
      2 C                     0.037595
      3 Cl                   -0.096424
      4 C                    -0.362852
      5 H                     0.204197
      6 C                     0.338632
      7 C                     0.060404
      8 C                     0.601247
      9 C                    -0.302893
     10 S                     1.215172
     11 O                    -0.685998
     12 O                    -0.725919
     13 N                    -1.082061
     14 H                     0.381911
     15 N                    -0.561259
     16 C                    -0.108890
     17 N                    -0.490003
     18 H                     0.410081
     19 O                    -0.613341
     20 H                     0.221241
     21 H                     0.384888
     22 C                    -0.515445
     23 H                     0.305560
     24 H                     0.370094
     25 Cl                    0.017038
     26 Cl                    0.004297
  ----------------------------------------
  Sum of atomic charges =    -1.000000

  Related Dipole Moment =    13.9287 (X  4.3499 Y -7.3535 Z -11.0006)


 Charges (in A.U.) from Merz-Kollman fitting 
 -----------------------------------------------
 Center     Atomic                  MZ       
 Number     Number                  Charge
 -----------------------------------------------
    1          6                   -0.007271
    2          6                    0.037595
    3         17                   -0.096424
    4          6                   -0.362852
    5          1                    0.204197
    6          6                    0.338632
    7          6                    0.060404
    8          6                    0.601247
    9          6                   -0.302893
   10         16                    1.215172
   11          8                   -0.685998
   12          8                   -0.725919
   13          7                   -1.082061
   14          1                    0.381911
   15          7                   -0.561259
   16          6                   -0.108890
   17          7                   -0.490003
   18          1                    0.410081
   19          8                   -0.613341
   20          1                    0.221241
   21          1                    0.384888
   22          6                   -0.515445
   23          1                    0.305560
   24          1                    0.370094
   25         17                    0.017038
   26         17                    0.004297
 -----------------------------------------------
    1   -2515.4527273730      4.21e-04  
         Merz-Kollman ESP Net Atomic Charges

     Atom                 Charge (a.u.)
  ----------------------------------------
      1 C                    -0.062988
      2 C                     0.014853
      3 Cl                   -0.087398
      4 C                    -0.344413
      5 H                     0.199186
      6 C                     0.397898
      7 C                     0.067464
      8 C                     0.627360
      9 C                    -0.312847
     10 S                     1.219681
     11 O                    -0.687569
     12 O                    -0.724906
     13 N                    -1.083178
     14 H                     0.385168
     15 N                    -0.568357
     16 C                    -0.067162
     17 N                    -0.467924
     18 H                     0.404913
     19 O                    -0.663805
     20 H                     0.222016
     21 H                     0.377039
     22 C                    -0.489828
     23 H                     0.290245
     24 H                     0.362399
     25 Cl                    0.001466
     26 Cl                   -0.009315
  ----------------------------------------
  Sum of atomic charges =    -1.000000

  Related Dipole Moment =    14.5726 (X  4.0058 Y -7.4508 Z -11.8658)


 Charges (in A.U.) from Merz-Kollman fitting 
 -----------------------------------------------
 Center     Atomic                  MZ       
 Number     Number                  Charge
 -----------------------------------------------
    1          6                   -0.062988
    2          6                    0.014853
    3         17                   -0.087398
    4          6                   -0.344413
    5          1                    0.199186
    6          6                    0.397898
    7          6                    0.067464
    8          6                    0.627360
    9          6                   -0.312847
   10         16                    1.219681
   11          8                   -0.687569
   12          8                   -0.724906
   13          7                   -1.083178
   14          1                    0.385168
   15          7                   -0.568357
   16          6                   -0.067162
   17          7                   -0.467924
   18          1                    0.404913
   19          8                   -0.663805
   20          1                    0.222016
   21          1                    0.377039
   22          6                   -0.489828
   23          1                    0.290245
   24          1                    0.362399
   25         17                    0.001466
   26         17                   -0.009315
 -----------------------------------------------
    2   -2515.4552922973      5.28e-04  
         Merz-Kollman ESP Net Atomic Charges

     Atom                 Charge (a.u.)
  ----------------------------------------
      1 C                    -0.062091
      2 C                     0.019738
      3 Cl                   -0.088959
      4 C                    -0.342276
      5 H                     0.199652
      6 C                     0.394932
      7 C                     0.069427
      8 C                     0.616312
      9 C                    -0.315421
     10 S                     1.222881
     11 O                    -0.690757
     12 O                    -0.727932
     13 N                    -1.088900
     14 H                     0.386940
     15 N                    -0.564413
     16 C                    -0.071894
     17 N                    -0.468209
     18 H                     0.405719
     19 O                    -0.656056
     20 H                     0.222895
     21 H                     0.378369
     22 C                    -0.492514
     23 H                     0.292921
     24 H                     0.362463
     25 Cl                    0.003762
     26 Cl                   -0.006588
  ----------------------------------------
  Sum of atomic charges =    -1.000000

  Related Dipole Moment =    14.7532 (X  4.0091 Y -7.4982 Z -12.0565)


 Charges (in A.U.) from Merz-Kollman fitting 
 -----------------------------------------------
 Center     Atomic                  MZ       
 Number     Number                  Charge
 -----------------------------------------------
    1          6                   -0.062091
    2          6                    0.019738
    3         17                   -0.088959
    4          6                   -0.342276
    5          1                    0.199652
    6          6                    0.394932
    7          6                    0.069427
    8          6                    0.616312
    9          6                   -0.315421
   10         16                    1.222881
   11          8                   -0.690757
   12          8                   -0.727932
   13          7                   -1.088900
   14          1                    0.386940
   15          7                   -0.564413
   16          6                   -0.071894
   17          7                   -0.468209
   18          1                    0.405719
   19          8                   -0.656056
   20          1                    0.222895
   21          1                    0.378369
   22          6                   -0.492514
   23          1                    0.292921
   24          1                    0.362463
   25         17                    0.003762
   26         17                   -0.006588
 -----------------------------------------------
    3   -2515.4529857681      7.38e-05  
         Merz-Kollman ESP Net Atomic Charges

     Atom                 Charge (a.u.)
  ----------------------------------------
      1 C                    -0.062354
      2 C                     0.020295
      3 Cl                   -0.088814
      4 C                    -0.347089
      5 H                     0.201051
      6 C                     0.392809
      7 C                     0.070930
      8 C                     0.618380
      9 C                    -0.313372
     10 S                     1.224632
     11 O                    -0.691250
     12 O                    -0.728887
     13 N                    -1.090555
     14 H                     0.386476
     15 N                    -0.561438
     16 C                    -0.078246
     17 N                    -0.465455
     18 H                     0.405813
     19 O                    -0.659023
     20 H                     0.222928
     21 H                     0.378530
     22 C                    -0.493555
     23 H                     0.294860
     24 H                     0.363420
     25 Cl                    0.005347
     26 Cl                   -0.005432
  ----------------------------------------
  Sum of atomic charges =    -1.000000

  Related Dipole Moment =    14.8386 (X  4.0547 Y -7.5265 Z -12.1283)


 Charges (in A.U.) from Merz-Kollman fitting 
 -----------------------------------------------
 Center     Atomic                  MZ       
 Number     Number                  Charge
 -----------------------------------------------
    1          6                   -0.062354
    2          6                    0.020295
    3         17                   -0.088814
    4          6                   -0.347089
    5          1                    0.201051
    6          6                    0.392809
    7          6                    0.070930
    8          6                    0.618380
    9          6                   -0.313372
   10         16                    1.224632
   11          8                   -0.691250
   12          8                   -0.728887
   13          7                   -1.090555
   14          1                    0.386476
   15          7                   -0.561438
   16          6                   -0.078246
   17          7                   -0.465455
   18          1                    0.405813
   19          8                   -0.659023
   20          1                    0.222928
   21          1                    0.378530
   22          6                   -0.493555
   23          1                    0.294860
   24          1                    0.363420
   25         17                    0.005347
   26         17                   -0.005432
 -----------------------------------------------
    4   -2515.4520128851      3.94e-05  
    5   -2515.4514929912      7.55e-06  Convergence criterion met
 ---------------------------------------
 SCF time:   CPU 196.23s  wall 25.00s 
(0)  E-EN(g) gas-phase elect-nuc energy                -2515.472858529 a.u.
(1)  E-EN(liq) elect-nuc energy of solute              -2515.451492991 a.u.
(2)  G-P(liq) polarization free energy of solvation           -86.7612 kcal/mol
(3)  G-ENP(liq) elect-nuc-pol free energy of system    -2515.589755715 a.u.
(4)  G-CDS(liq) cavity-dispersion-solvent structure 
     free energy                                               -0.4773 kcal/mol
(5)  G-P-CDS(liq) = G-P(liq) + G-CDS(liq) = (2) + (4)         -87.2385 kcal/mol
(6)  G-S(liq) free energy of system = (1) + (5)        -2515.590516393 a.u.
(7)  DeltaE-EN(liq) elect-nuc reorganization
     energy of solute molecule (7) = (1) - (0)                 13.4071 kcal/mol
(8)  DeltaG-ENP(liq) elect-nuc-pol free energy
     of solvation (8) = (3) - (0)                             -73.3541 kcal/mol
(9)  DeltaG-S(liq) free energy of  solvation
     (9) = (6) - (0)                                          -73.8314 kcal/mol
 SCF   energy in the final basis set =    -2515.5905163926
 Total energy in the final basis set =    -2515.5905163926
 
 --------------------------------------------------------------
 
                    Orbital Energies (a.u.)
 --------------------------------------------------------------
 
 Alpha MOs
 -- Occupied --
********-102.6842-102.6826 -90.1397 -19.6328 -19.6257 -19.6240 -14.8130
-14.8097 -14.7283 -10.6844 -10.6821 -10.6676 -10.6497 -10.6340 -10.5949
-10.5868 -10.5857 -10.5830  -9.8396  -9.8338  -9.8324  -8.4522  -7.5639
 -7.5582  -7.5574  -7.5571  -7.5567  -7.5513  -7.5511  -7.5499  -7.5497
 -6.3747  -6.3740  -6.3734  -1.2147  -1.1823  -1.1206  -1.0992  -1.0415
 -1.0181  -1.0136  -0.9721  -0.9589  -0.9325  -0.8863  -0.8705  -0.8215
 -0.7588  -0.7463  -0.7277  -0.7022  -0.6596  -0.6412  -0.6311  -0.5947
 -0.5879  -0.5754  -0.5618  -0.5562  -0.5514  -0.5336  -0.5236  -0.5228
 -0.5164  -0.5089  -0.4990  -0.4895  -0.4796  -0.4465  -0.4396  -0.4326
 -0.4101  -0.4040  -0.4023  -0.3968  -0.3951  -0.3859  -0.3819  -0.3787
 -0.3636  -0.3577  -0.3438  -0.3363  -0.3255  -0.3164  -0.2815
 -- Virtual --
 -0.0373  -0.0194  -0.0053  -0.0037   0.0009   0.0052   0.0088   0.0111
  0.0166   0.0271   0.0303   0.0363   0.0401   0.0465   0.0522   0.0574
  0.0675   0.0687   0.0738   0.0748   0.0783   0.0849   0.0861   0.0956
  0.0963   0.0975   0.1046   0.1093   0.1144   0.1160   0.1226   0.1309
  0.1327   0.1350   0.1405   0.1423   0.1448   0.1485   0.1565   0.1589
  0.1625   0.1691   0.1712   0.1751   0.1769   0.1789   0.1842   0.1886
  0.1952   0.1998   0.2026   0.2086   0.2119   0.2184   0.2202   0.2239
  0.2276   0.2332   0.2381   0.2396   0.2437   0.2469   0.2497   0.2516
  0.2564   0.2593   0.2616   0.2721   0.2727   0.2781   0.2798   0.2836
  0.2849   0.2901   0.2940   0.3000   0.3037   0.3065   0.3136   0.3217
  0.3299   0.3304   0.3360   0.3376   0.3506   0.3515   0.3577   0.3640
  0.3683   0.3739   0.3873   0.3957   0.4000   0.4041   0.4131   0.4195
  0.4298   0.4494   0.4676   0.4736   0.4831   0.5063   0.5329   0.5674
  0.5760   0.5970   0.6048   0.6253   0.6289   0.6388   0.6509   0.6565
  0.6611   0.6637   0.6709   0.6754   0.6856   0.6896   0.7045   0.7100
  0.7135   0.7182   0.7221   0.7367   0.7492   0.7523   0.7768   0.7773
  0.7839   0.7870   0.8103   0.8118   0.8284   0.8386   0.8414   0.8557
  0.8656   0.8827   0.8927   0.9073   0.9187   0.9234   0.9320   0.9428
  0.9444   0.9498   0.9570   0.9663   0.9834   0.9892   0.9994   1.0082
  1.0230   1.0317   1.0340   1.0394   1.0504   1.0630   1.0743   1.0885
  1.0941   1.1080   1.1119   1.1221   1.1298   1.1418   1.1512   1.1592
  1.1626   1.1787   1.1883   1.1955   1.1988   1.2038   1.2129   1.2236
  1.2371   1.2427   1.2551   1.2718   1.2760   1.2871   1.3042   1.3270
  1.3366   1.3575   1.3667   1.3811   1.3922   1.3978   1.4001   1.4066
  1.4086   1.4215   1.4305   1.4475   1.4526   1.4637   1.4725   1.4853
  1.4934   1.5048   1.5256   1.5335   1.5479   1.5612   1.5823   1.6013
  1.6043   1.6205   1.6885   1.7133   1.7310   1.7840   1.7918   1.7988
  1.8060   1.8105   1.8171   1.8355   1.8437   1.8565   1.8741   1.8778
  1.8882   1.8957   1.9211   1.9262   1.9406   1.9708   1.9832   1.9930
  2.0071   2.0203   2.0266   2.0370   2.0535   2.0548   2.0755   2.1120
  2.1433   2.1567   2.1654   2.1756   2.2053   2.2138   2.2369   2.2549
  2.2659   2.2729   2.2870   2.2968   2.3172   2.3286   2.3474   2.4043
  2.4111   2.4490   2.4514   2.5327   2.5468   2.5701   2.5878   2.6028
  2.6134   2.6428   2.6821   2.7028   2.7260   2.7377   2.7686   2.7946
  2.8388   2.8715   2.8757   2.9342   2.9440   2.9931   3.0034   3.1259
  3.1971   3.3171   3.3994   4.0051   4.0824   4.1206   4.2362   4.2518
  4.2637   4.3098   4.3240   4.3382   4.3790   4.4163   4.4385   4.4578
  4.4761   4.4993   4.5276   4.5928   4.7129   4.8246
 --------------------------------------------------------------
 
          Ground-State Mulliken Net Atomic Charges

     Atom                 Charge (a.u.)
  ----------------------------------------
      1 C                    -7.151561
      2 C                     1.120499
      3 Cl                    0.105705
      4 C                    -0.522687
      5 H                     0.307784
      6 C                     3.033287
      7 C                     1.970431
      8 C                     1.329070
      9 C                    -0.188927
     10 S                     0.312488
     11 O                    -0.925938
     12 O                    -0.707000
     13 N                    -0.994017
     14 H                     0.401229
     15 N                    -0.310145
     16 C                     0.691567
     17 N                    -0.414425
     18 H                     0.495616
     19 O                    -0.861561
     20 H                     0.269556
     21 H                     0.514306
     22 C                    -0.239864
     23 H                     0.320627
     24 H                     0.333650
     25 Cl                    0.015664
     26 Cl                    0.094647
  ----------------------------------------
  Sum of atomic charges =    -1.000000

         Merz-Kollman ESP Net Atomic Charges

     Atom                 Charge (a.u.)
  ----------------------------------------
      1 C                    -0.063156
      2 C                     0.021074
      3 Cl                   -0.089125
      4 C                    -0.347511
      5 H                     0.200985
      6 C                     0.394036
      7 C                     0.070231
      8 C                     0.618029
      9 C                    -0.313695
     10 S                     1.227871
     11 O                    -0.692287
     12 O                    -0.729789
     13 N                    -1.091689
     14 H                     0.386447
     15 N                    -0.560731
     16 C                    -0.080019
     17 N                    -0.464947
     18 H                     0.405727
     19 O                    -0.658756
     20 H                     0.223124
     21 H                     0.378474
     22 C                    -0.493120
     23 H                     0.295151
     24 H                     0.363705
     25 Cl                    0.005398
     26 Cl                   -0.005427
  ----------------------------------------
  Sum of atomic charges =    -1.000000

  Related Dipole Moment =    14.8527 (X  4.0566 Y -7.5308 Z -12.1422)

 -----------------------------------------------------------------
                    Cartesian Multipole Moments
 -----------------------------------------------------------------
    Charge (ESU x 10^10)
                -4.8032
    Dipole Moment (Debye)
         X       4.0103      Y      -7.5867      Z     -12.1594
       Tot      14.8826
    Quadrupole Moments (Debye-Ang)
        XX    -161.9142     XY       8.6104     YY    -166.5873
        XZ      22.1084     YZ      -8.1277     ZZ    -121.5740
    Octopole Moments (Debye-Ang^2)
       XXX     411.6047    XXY     -50.3693    XYY     171.2618
       YYY     -59.8612    XXZ     331.4098    XYZ      15.7641
       YYZ     381.0838    XZZ     113.7295    YZZ      15.0570
       ZZZ     871.4853
    Hexadecapole Moments (Debye-Ang^3)
      XXXX   -3644.1829   XXXY     465.7684   XXYY   -1040.7718
      XYYY     504.1748   YYYY   -2076.2929   XXXZ      57.0657
      XXYZ    -380.9620   XYYZ      36.5282   YYYZ   -1251.9771
      XXZZ   -2373.6779   XYZZ     155.1194   YYZZ   -2501.1438
      XZZZ     121.7312   YZZZ   -1437.7951   ZZZZ  -10525.2636
 -----------------------------------------------------------------
 Total job time:  58.77s(wall), 448.06s(cpu) 
 Fri Jul  1 13:50:16 2022

        *************************************************************
        *                                                           *
        *  Thank you very much for using Q-Chem.  Have a nice day.  *
        *                                                           *
        *************************************************************


