                  Welcome to Q-Chem
     A Quantum Leap Into The Future Of Chemistry


 Q-Chem 5.4 (devel), Q-Chem, Inc., Pleasanton, CA (2021)

 E. Epifanovsky,  A. T. B. Gilbert,  Xintian Feng,  Joonho Lee,  Yuezhi Mao,  
 N. Mardirossian,  P. Pokhilko,  A. White,  M. Wormit,  M. P. Coons,  
 A. L. Dempwolff,  Zhengting Gan,  D. Hait,  P. R. Horn,  L. D. Jacobson,  
 I. Kaliman,  J. Kussmann,  A. W. Lange,  Ka Un Lao,  D. S. Levine,  Jie Liu,  
 S. C. McKenzie,  A. F. Morrison,  K. Nanda,  F. Plasser,  D. R. Rehn,  
 M. L. Vidal,  Zhi-Qiang You,  Ying Zhu,  B. Alam,  B. Albrecht,  
 A. Aldossary,  E. Alguire,  J. H. Andersen,  D. Barton,  K. Begam,  A. Behn,  
 Y. A. Bernard,  E. J. Berquist,  H. Burton,  A. Carreras,  K. Carter-Fenk,  
 R. Chakraborty,  A. D. Chien,  K. D. Closser,  V. Cofer-Shabica,  
 S. Dasgupta,  Jia Deng,  M. de Wergifosse,  M. Diedenhofen,  Hainam Do,  
 S. Ehlert,  Po-Tung Fang,  S. Fatehi,  Qingguo Feng,  T. Friedhoff,  
 J. Gayvert,  Qinghui Ge,  G. Gidofalvi,  M. Goldey,  J. Gomes,  
 C. Gonzalez-Espinoza,  S. Gulania,  A. Gunina,  M. W. D. Hanson-Heine,  
 P. H. P. Harbach,  A. W. Hauser,  M. F. Herbst,  M. Hernandez Vera,  
 M. Hodecker,  Z. C. Holden,  S. Houck,  Xunkun Huang,  Kerwin Hui,  
 B. C. Huynh,  M. Ivanov,  Hyunjun Ji,  Hanjie Jiang,  B. Kaduk,  S. Kaehler,  
 K. Khistyaev,  Jaehoon Kim,  P. Klunzinger,  Z. Koczor-Benda,  
 Joong Hoon Koh,  D. Kosenkov,  L. Koulias,  T. Kowalczyk,  C. M. Krauter,  
 K. Kue,  A. Kunitsa,  T. Kus,  A. Landau,  K. V. Lawler,  D. Lefrancois,  
 S. Lehtola,  Rain Li,  Yi-Pei Li,  Jiashu Liang,  M. Liebenthal,  
 Hung-Hsuan Lin,  You-Sheng Lin,  Fenglai Liu,  Kuan-Yu Liu,  
 M. Loipersberger,  A. Luenser,  A. Manjanath,  P. Manohar,  E. Mansoor,  
 S. F. Manzer,  Shan-Ping Mao,  A. V. Marenich,  T. Markovich,  S. Mason,  
 S. A. Maurer,  P. F. McLaughlin,  M. F. S. J. Menger,  J.-M. Mewes,  
 S. A. Mewes,  P. Morgante,  J. W. Mullinax,  K. J. Oosterbaan,  G. Paran,  
 Alexander C. Paul,  Suranjan K. Paul,  F. Pavosevic,  Zheng Pei,  S. Prager,  
 E. I. Proynov,  E. Ramos,  B. Rana,  A. E. Rask,  A. Rettig,  R. M. Richard,  
 F. Rob,  E. Rossomme,  T. Scheele,  M. Scheurer,  M. Schneider,  
 N. Sergueev,  S. M. Sharada,  W. Skomorowski,  D. W. Small,  C. J. Stein,  
 Yu-Chuan Su,  E. J. Sundstrom,  Zhen Tao,  J. Thirman,  T. Tsuchimochi,  
 N. M. Tubman,  S. P. Veccham,  O. Vydrov,  J. Wenzel,  J. Witte,  A. Yamada,  
 Kun Yao,  S. Yeganeh,  S. R. Yost,  A. Zech,  Igor Ying Zhang,  Xing Zhang,  
 Yu Zhang,  D. Zuev,  A. Aspuru-Guzik,  A. T. Bell,  N. A. Besley,  
 K. B. Bravaya,  B. R. Brooks,  D. Casanova,  Jeng-Da Chai,  S. Coriani,  
 C. J. Cramer,  A. E. DePrince, III,  R. A. DiStasio Jr.,  A. Dreuw,  
 B. D. Dunietz,  T. R. Furlani,  W. A. Goddard III,  S. Grimme,  
 S. Hammes-Schiffer,  T. Head-Gordon,  W. J. Hehre,  Chao-Ping Hsu,  
 T.-C. Jagau,  Yousung Jung,  A. Klamt,  Jing Kong,  D. S. Lambrecht,  
 WanZhen Liang,  N. J. Mayhall,  C. W. McCurdy,  J. B. Neaton,  
 C. Ochsenfeld,  J. A. Parkhill,  R. Peverati,  V. A. Rassolov,  Yihan Shao,  
 L. V. Slipchenko,  T. Stauch,  R. P. Steele,  J. E. Subotnik,  
 A. J. W. Thom,  A. Tkatchenko,  D. G. Truhlar,  T. Van Voorhis,  
 T. A. Wesolowski,  K. B. Whaley,  H. L. Woodcock III,  P. M. Zimmerman,  
 S. Faraji,  P. M. W. Gill,  M. Head-Gordon,  J. M. Herbert,  A. I. Krylov

 Additional authors for Version 5.4.1: 
 S. Kotaru,  Shaozhi Li,  Xiangyuan Li,  F. Matz,  A. Molle,  Haisheng Ren,  
 Yingli Su,  Hung-Yi Tsai,  C. Utku,  Fang Wang

 Contributors to earlier versions of Q-Chem not listed above: 
 R. D. Adamson,  B. Austin,  R. Baer,  J. Baker,  G. J. O. Beran,  
 K. Brandhorst,  S. T. Brown,  E. F. C. Byrd,  A. K. Chakraborty,  
 G. K. L. Chan,  Chun-Min Chang,  Yunqing Chen,  C.-L. Cheng,  
 Siu Hung Chien,  D. M. Chipman,  D. L. Crittenden,  H. Dachsel,  
 R. J. Doerksen,  A. D. Dutoi,  R. G. Edgar,  J. Fosso-Tande,  
 L. Fusti-Molnar,  D. Ghosh,  A. Ghysels,  A. Golubeva-Zadorozhnaya,  
 J. Gonthier,  M. S. Gordon,  S. R. Gwaltney,  G. Hawkins,  J. E. Herr,  
 A. Heyden,  S. Hirata,  E. G. Hohenstein,  G. Kedziora,  F. J. Keil,  
 C. Kelley,  Jihan Kim,  R. A. King,  R. Z. Khaliullin,  P. P. Korambath,  
 W. Kurlancheek,  A. Laurent,  A. M. Lee,  M. S. Lee,  S. V. Levchenko,  
 Ching Yeh Lin,  D. Liotard,  E. Livshits,  R. C. Lochan,  I. Lotan,  
 L. A. Martinez-Martinez,  P. E. Maslen,  N. Nair,  D. P. O'Neill,  
 D. Neuhauser,  E. Neuscamman,  C. M. Oana,  R. Olivares-Amaya,  R. Olson,  
 T. M. Perrine,  B. Peters,  P. A. Pieniazek,  A. Prociuk,  Y. M. Rhee,  
 J. Ritchie,  M. A. Rohrdanz,  E. Rosta,  N. J. Russ,  H. F. Schaefer III,  
 M. W. Schmidt,  N. E. Schultz,  S. Sharma,  N. Shenvi,  C. D. Sherrill,  
 A. C. Simmonett,  A. Sodt,  T. Stein,  D. Stuck,  K. S. Thanthiriwatte,  
 V. Vanovschi,  L. Vogt,  Tao Wang,  A. Warshel,  M. A. Watson,  
 C. F. Williams,  Q. Wu,  X. Xu,  Jun Yang,  W. Zhang,  Yan Zhao

 Please cite Q-Chem as follows:
 Y. Shao et al., Mol. Phys. 113, 184-215 (2015)
 DOI: 10.1080/00268976.2014.952696

 Q-Chem 5.4.1 for Intel X86 EM64T Linux

 Parts of Q-Chem use Armadillo 9.800.1 (Horizon Scraper).
 http://arma.sourceforge.net/

 Q-Chem begins on Sat Jul  2 21:20:35 2022  

 Host: gadi-cpu-clx-1998.gadi.nci.org.au
0

     Scratch files written to /jobfs/50112460.gadi-pbs/qchem2462382//
 Processing $rem in /apps/qchem/5.4.1/config/preferences:
 Processing $rem in /home/561/yj5695/.qchemrc:
 Symmetry turned off for PCM/SM12/SMD calculation
 Method-specific promolecule density matrix will be built for SM12 calculation

 Checking the input file for inconsistencies... 	...done.

--------------------------------------------------------------
User input:
--------------------------------------------------------------
$molecule
-1  1
C -1.6330962577  1.0402598821 -1.1296783828
C -2.8699433252  0.8895846797 -1.770223897
C -2.9552860681  0.123223845 -2.9393353871
C -1.8280951359 -0.4952684944 -3.470591612
C -0.6187467197 -0.3335313037 -2.8125589751
C -0.5050620903  0.420789114 -1.6498025178
S -1.4075554989  2.0471308264  0.3827066136
O -1.8446274535  3.4029495712 -0.0537706425
O -2.2951283863  1.3993110889  1.3796414914
N  0.0712519137  1.9384604981  0.84014123
H  0.6411154401  2.5669394494  0.2685769538
Cl -4.299172181  1.632929289 -1.1444320899
Cl -4.4645500676 -0.0780536735 -3.7693294254
S  0.8258303832 -1.1591212186 -3.4515244303
H -1.9043263069 -1.0818199145 -4.3808672038
H  0.4483458346  0.537730112 -1.1421538338
O  0.5774926457 -1.4579154974 -4.8597265771
O  1.9915772059 -0.367417641 -3.0668505318
N  0.9797336266 -2.6098447299 -2.6871794283
H  0.1874224167 -3.2283546434 -2.8725666487
H  1.1297380247 -2.5004422392 -1.6818977051
$end

$rem
jobtype sp
exchange M062X
basis 6-31+G*
SMX_GAS_PHASE = TRUE
solvent_method sm12
$end

$smx
solvent water
charges mk
$end
--------------------------------------------------------------
 ----------------------------------------------------------------
             Standard Nuclear Orientation (Angstroms)
    I     Atom           X                Y                Z
 ----------------------------------------------------------------
    1      C      -1.6330962577     1.0402598821    -1.1296783828
    2      C      -2.8699433252     0.8895846797    -1.7702238970
    3      C      -2.9552860681     0.1232238450    -2.9393353871
    4      C      -1.8280951359    -0.4952684944    -3.4705916120
    5      C      -0.6187467197    -0.3335313037    -2.8125589751
    6      C      -0.5050620903     0.4207891140    -1.6498025178
    7      S      -1.4075554989     2.0471308264     0.3827066136
    8      O      -1.8446274535     3.4029495712    -0.0537706425
    9      O      -2.2951283863     1.3993110889     1.3796414914
   10      N       0.0712519137     1.9384604981     0.8401412300
   11      H       0.6411154401     2.5669394494     0.2685769538
   12      Cl     -4.2991721810     1.6329292890    -1.1444320899
   13      Cl     -4.4645500676    -0.0780536735    -3.7693294254
   14      S       0.8258303832    -1.1591212186    -3.4515244303
   15      H      -1.9043263069    -1.0818199145    -4.3808672038
   16      H       0.4483458346     0.5377301120    -1.1421538338
   17      O       0.5774926457    -1.4579154974    -4.8597265771
   18      O       1.9915772059    -0.3674176410    -3.0668505318
   19      N       0.9797336266    -2.6098447299    -2.6871794283
   20      H       0.1874224167    -3.2283546434    -2.8725666487
   21      H       1.1297380247    -2.5004422392    -1.6818977051
 ----------------------------------------------------------------
 Nuclear Repulsion Energy =        1706.96343690 hartrees
 There are       77 alpha and       77 beta electrons
 Requested basis set is 6-31+G(d)
 There are 94 shells and 330 basis functions

 Total QAlloc Memory Limit   2000 MB
 Mega-Array Size       188 MB
 MEM_STATIC part       192 MB
 A cutoff of  1.0D-08 yielded   3283 shell pairs
 There are     42658 function pairs
 Smallest overlap matrix eigenvalue = 6.42E-07

 Q-Chem warning in module stvman/mkSTV.C, line 323:

 Overlap eigenvalue is smaller than square root of threshold
 Use THRESH >= 12 to get rid of this warning

 Linear dependence detected in AO basis
 Tighter screening thresholds may be required for diffuse basis sets
 Use S2THRESH > 14 and THRESH = 14 in case of SCF convergence issues
 Number of orthogonalized atomic orbitals = 328
 Maximum deviation from orthogonality = 1.769E-10

 Scale SEOQF with 1.000000e-01/1.000000e-01/1.000000e-01

 Standard Electronic Orientation quadrupole field applied
 Nucleus-field energy     =    -0.0000000504 hartrees
 ================ Generating on-the-fly Promolecule Density  ================
Attempting to make child job directory: /jobfs/50112460.gadi-pbs/qchem2462382//Frg1/
Attempting to make child job directory: /jobfs/50112460.gadi-pbs/qchem2462382//Frg2/
Attempting to make child job directory: /jobfs/50112460.gadi-pbs/qchem2462382//Frg3/
Attempting to make child job directory: /jobfs/50112460.gadi-pbs/qchem2462382//Frg4/
Attempting to make child job directory: /jobfs/50112460.gadi-pbs/qchem2462382//Frg5/
Attempting to make child job directory: /jobfs/50112460.gadi-pbs/qchem2462382//Frg6/
Creating input file /jobfs/50112460.gadi-pbs/qchem2462382/Frg1.input
using default PutDataFrgm: nothing
calling putenv with: QCSCRATCH=/jobfs/50112460.gadi-pbs/qchem2462382/ 
Spawning Job For Fragment 0
Done Job For Fragment 0
calling putenv with: QCSCRATCH=/jobfs/50112460.gadi-pbs 
calling putenv with: QCTHREADS=8 
Creating input file /jobfs/50112460.gadi-pbs/qchem2462382/Frg2.input
using default PutDataFrgm: nothing
calling putenv with: QCSCRATCH=/jobfs/50112460.gadi-pbs/qchem2462382/ 
Spawning Job For Fragment 1
Done Job For Fragment 1
calling putenv with: QCSCRATCH=/jobfs/50112460.gadi-pbs 
calling putenv with: QCTHREADS=8 
Creating input file /jobfs/50112460.gadi-pbs/qchem2462382/Frg3.input
using default PutDataFrgm: nothing
calling putenv with: QCSCRATCH=/jobfs/50112460.gadi-pbs/qchem2462382/ 
Spawning Job For Fragment 2
Done Job For Fragment 2
calling putenv with: QCSCRATCH=/jobfs/50112460.gadi-pbs 
calling putenv with: QCTHREADS=8 
Creating input file /jobfs/50112460.gadi-pbs/qchem2462382/Frg4.input
using default PutDataFrgm: nothing
calling putenv with: QCSCRATCH=/jobfs/50112460.gadi-pbs/qchem2462382/ 
Spawning Job For Fragment 3
Done Job For Fragment 3
calling putenv with: QCSCRATCH=/jobfs/50112460.gadi-pbs 
calling putenv with: QCTHREADS=8 
Creating input file /jobfs/50112460.gadi-pbs/qchem2462382/Frg5.input
using default PutDataFrgm: nothing
calling putenv with: QCSCRATCH=/jobfs/50112460.gadi-pbs/qchem2462382/ 
Spawning Job For Fragment 4
Done Job For Fragment 4
calling putenv with: QCSCRATCH=/jobfs/50112460.gadi-pbs 
calling putenv with: QCTHREADS=8 
Creating input file /jobfs/50112460.gadi-pbs/qchem2462382/Frg6.input
using default PutDataFrgm: nothing
calling putenv with: QCSCRATCH=/jobfs/50112460.gadi-pbs/qchem2462382/ 
Spawning Job For Fragment 5
Done Job For Fragment 5
calling putenv with: QCSCRATCH=/jobfs/50112460.gadi-pbs 
calling putenv with: QCTHREADS=8 
 Time for running child jobs:  CPU 0.95 s  wall 2.16 s
 ============= Method Specific Promolecule Density Constructed =============
 Guess from superposition of atomic densities
 Warning:  Energy on first SCF cycle will be non-variational
 SAD guess density has 153.000000 electrons

 -----------------------------------------------------------------------
  General SCF calculation program by
  Eric Jon Sundstrom, Paul Horn, Yuezhi Mao, Dmitri Zuev, Alec White,
  David Stuck, Shaama M.S., Shane Yost, Joonho Lee, David Small,
  Daniel Levine, Susi Lehtola, Hugh Burton, Evgeny Epifanovsky,
  Bang C. Huynh
 -----------------------------------------------------------------------
 Exchange:     0.5400 Hartree-Fock + 1.0000 M06-2X
 Correlation:  1.0000 M06-2X
 Using SG-3 standard quadrature grid
 using 8 threads for integral computing
 -------------------------------------------------------
 OpenMP Integral computing Module                
 Release: version 1.0, May 2013, Q-Chem Inc. Pittsburgh 
 -------------------------------------------------------
 A restricted SCF calculation will be
 performed using DIIS
 SCF converges when DIIS error is below 1.0e-05
 ---------------------------------------
  Cycle       Energy         DIIS error
 ---------------------------------------
    1   -2363.2617362582      4.20e-02  
    2   -2357.9017166542      6.31e-03  
    3   -2357.5595328374      8.81e-03  
    4   -2358.3468210199      8.49e-04  
    5   -2358.3542686108      3.88e-04  
    6   -2358.3561480636      8.88e-05  
    7   -2358.3562425319      3.62e-05  
    8   -2358.3562608498      8.51e-06  Convergence criterion met
 ---------------------------------------
 SCF time:   CPU 133.47s  wall 16.00s 
 SCF   energy in the final basis set =    -2358.3562608498
 Total energy in the final basis set =    -2358.3562608498
 Exchange:     0.5400 Hartree-Fock + 1.0000 M06-2X
 Correlation:  1.0000 M06-2X
 Using SG-3 standard quadrature grid
 
 SM12 calculation using Merz-Singh-Kollman charges
 Citation of the SM12 model:
 Marenich, A.V.; Cramer, C.J.; Truhlar, D.G.
 J. Chem. Theory Comput. 2013, 9, 609-612.
 iSolventCode=           1
 Solvent: water                                                           
 
  Building new vdw surfaces
         Merz-Kollman ESP Net Atomic Charges

     Atom                 Charge (a.u.)
  ----------------------------------------
      1 C                    -0.028252
      2 C                     0.068943
      3 C                     0.001925
      4 C                    -0.111760
      5 C                    -0.063052
      6 C                    -0.235408
      7 S                     1.164011
      8 O                    -0.661577
      9 O                    -0.627992
     10 N                    -0.985681
     11 H                     0.365658
     12 Cl                   -0.036523
     13 Cl                   -0.115900
     14 S                     1.047767
     15 H                     0.145642
     16 H                     0.186075
     17 O                    -0.529291
     18 O                    -0.508924
     19 N                    -0.855516
     20 H                     0.377430
     21 H                     0.402425
  ----------------------------------------
  Sum of atomic charges =    -1.000000

  Related Dipole Moment =    11.4383 (X  5.3127 Y -9.9218 Z  2.0421)


 Charges (in A.U.) from Merz-Kollman fitting 
 -----------------------------------------------
 Center     Atomic                  MZ       
 Number     Number                  Charge
 -----------------------------------------------
    1          6                   -0.028252
    2          6                    0.068943
    3          6                    0.001925
    4          6                   -0.111760
    5          6                   -0.063052
    6          6                   -0.235408
    7         16                    1.164011
    8          8                   -0.661577
    9          8                   -0.627992
   10          7                   -0.985681
   11          1                    0.365658
   12         17                   -0.036523
   13         17                   -0.115900
   14         16                    1.047767
   15          1                    0.145642
   16          1                    0.186075
   17          8                   -0.529291
   18          8                   -0.508924
   19          7                   -0.855516
   20          1                    0.377430
   21          1                    0.402425
 -----------------------------------------------
 A restricted SCF calculation will be
 performed using Roothaan-Hall, DIIS
 SCF converges when DIIS error is below 1.0e-05
 ---------------------------------------
  Cycle       Energy         DIIS error
 ---------------------------------------
         Merz-Kollman ESP Net Atomic Charges

     Atom                 Charge (a.u.)
  ----------------------------------------
      1 C                    -0.034537
      2 C                     0.034848
      3 C                     0.010574
      4 C                    -0.077915
      5 C                    -0.003024
      6 C                    -0.265706
      7 S                     1.181746
      8 O                    -0.700719
      9 O                    -0.681092
     10 N                    -1.022867
     11 H                     0.389438
     12 Cl                   -0.043421
     13 Cl                   -0.085163
     14 S                     1.076217
     15 H                     0.158712
     16 H                     0.198194
     17 O                    -0.560699
     18 O                    -0.559270
     19 N                    -0.829359
     20 H                     0.395849
     21 H                     0.418194
  ----------------------------------------
  Sum of atomic charges =    -1.000000

  Related Dipole Moment =    13.0996 (X  5.3391 Y -11.9617 Z  0.1043)


 Charges (in A.U.) from Merz-Kollman fitting 
 -----------------------------------------------
 Center     Atomic                  MZ       
 Number     Number                  Charge
 -----------------------------------------------
    1          6                   -0.034537
    2          6                    0.034848
    3          6                    0.010574
    4          6                   -0.077915
    5          6                   -0.003024
    6          6                   -0.265706
    7         16                    1.181746
    8          8                   -0.700719
    9          8                   -0.681092
   10          7                   -1.022867
   11          1                    0.389438
   12         17                   -0.043421
   13         17                   -0.085163
   14         16                    1.076217
   15          1                    0.158712
   16          1                    0.198194
   17          8                   -0.560699
   18          8                   -0.559270
   19          7                   -0.829359
   20          1                    0.395849
   21          1                    0.418194
 -----------------------------------------------
    1   -2358.3562615781      4.92e-04  Roothaan Step
 ---------------------------------------
  Cycle       Energy         DIIS error
 ---------------------------------------
         Merz-Kollman ESP Net Atomic Charges

     Atom                 Charge (a.u.)
  ----------------------------------------
      1 C                    -0.009584
      2 C                     0.086988
      3 C                    -0.032066
      4 C                    -0.105326
      5 C                    -0.040482
      6 C                    -0.260959
      7 S                     1.206458
      8 O                    -0.706879
      9 O                    -0.680452
     10 N                    -1.043429
     11 H                     0.384077
     12 Cl                   -0.050363
     13 Cl                   -0.071308
     14 S                     1.012518
     15 H                     0.166674
     16 H                     0.197571
     17 O                    -0.529665
     18 O                    -0.516166
     19 N                    -0.820987
     20 H                     0.392615
     21 H                     0.420768
  ----------------------------------------
  Sum of atomic charges =    -1.000000

  Related Dipole Moment =    12.8839 (X  5.2956 Y -11.7427 Z  0.2499)


 Charges (in A.U.) from Merz-Kollman fitting 
 -----------------------------------------------
 Center     Atomic                  MZ       
 Number     Number                  Charge
 -----------------------------------------------
    1          6                   -0.009584
    2          6                    0.086988
    3          6                   -0.032066
    4          6                   -0.105326
    5          6                   -0.040482
    6          6                   -0.260959
    7         16                    1.206458
    8          8                   -0.706879
    9          8                   -0.680452
   10          7                   -1.043429
   11          1                    0.384077
   12         17                   -0.050363
   13         17                   -0.071308
   14         16                    1.012518
   15          1                    0.166674
   16          1                    0.197571
   17          8                   -0.529665
   18          8                   -0.516166
   19          7                   -0.820987
   20          1                    0.392615
   21          1                    0.420768
 -----------------------------------------------
    1   -2358.3452162954      3.55e-04  
         Merz-Kollman ESP Net Atomic Charges

     Atom                 Charge (a.u.)
  ----------------------------------------
      1 C                    -0.029772
      2 C                     0.051746
      3 C                    -0.009438
      4 C                    -0.091353
      5 C                    -0.007394
      6 C                    -0.266140
      7 S                     1.213810
      8 O                    -0.711642
      9 O                    -0.690718
     10 N                    -1.040753
     11 H                     0.386634
     12 Cl                   -0.044284
     13 Cl                   -0.076159
     14 S                     1.055260
     15 H                     0.163773
     16 H                     0.198505
     17 O                    -0.550521
     18 O                    -0.545643
     19 N                    -0.820077
     20 H                     0.393873
     21 H                     0.420292
  ----------------------------------------
  Sum of atomic charges =    -1.000000

  Related Dipole Moment =    13.2300 (X  5.3641 Y -12.0937 Z -0.0409)


 Charges (in A.U.) from Merz-Kollman fitting 
 -----------------------------------------------
 Center     Atomic                  MZ       
 Number     Number                  Charge
 -----------------------------------------------
    1          6                   -0.029772
    2          6                    0.051746
    3          6                   -0.009438
    4          6                   -0.091353
    5          6                   -0.007394
    6          6                   -0.266140
    7         16                    1.213810
    8          8                   -0.711642
    9          8                   -0.690718
   10          7                   -1.040753
   11          1                    0.386634
   12         17                   -0.044284
   13         17                   -0.076159
   14         16                    1.055260
   15          1                    0.163773
   16          1                    0.198505
   17          8                   -0.550521
   18          8                   -0.545643
   19          7                   -0.820077
   20          1                    0.393873
   21          1                    0.420292
 -----------------------------------------------
    2   -2358.3464546150      4.26e-04  
         Merz-Kollman ESP Net Atomic Charges

     Atom                 Charge (a.u.)
  ----------------------------------------
      1 C                    -0.029242
      2 C                     0.059144
      3 C                    -0.010391
      4 C                    -0.089910
      5 C                    -0.010729
      6 C                    -0.266133
      7 S                     1.213319
      8 O                    -0.712905
      9 O                    -0.691537
     10 N                    -1.045151
     11 H                     0.388144
     12 Cl                   -0.047036
     13 Cl                   -0.074642
     14 S                     1.043337
     15 H                     0.164055
     16 H                     0.198713
     17 O                    -0.546558
     18 O                    -0.540307
     19 N                    -0.816793
     20 H                     0.394044
     21 H                     0.420578
  ----------------------------------------
  Sum of atomic charges =    -1.000000

  Related Dipole Moment =    13.2785 (X  5.3495 Y -12.1525 Z -0.1340)


 Charges (in A.U.) from Merz-Kollman fitting 
 -----------------------------------------------
 Center     Atomic                  MZ       
 Number     Number                  Charge
 -----------------------------------------------
    1          6                   -0.029242
    2          6                    0.059144
    3          6                   -0.010391
    4          6                   -0.089910
    5          6                   -0.010729
    6          6                   -0.266133
    7         16                    1.213319
    8          8                   -0.712905
    9          8                   -0.691537
   10          7                   -1.045151
   11          1                    0.388144
   12         17                   -0.047036
   13         17                   -0.074642
   14         16                    1.043337
   15          1                    0.164055
   16          1                    0.198713
   17          8                   -0.546558
   18          8                   -0.540307
   19          7                   -0.816793
   20          1                    0.394044
   21          1                    0.420578
 -----------------------------------------------
    3   -2358.3452553533      5.37e-05  
         Merz-Kollman ESP Net Atomic Charges

     Atom                 Charge (a.u.)
  ----------------------------------------
      1 C                    -0.030562
      2 C                     0.057722
      3 C                    -0.013379
      4 C                    -0.090627
      5 C                    -0.007690
      6 C                    -0.265924
      7 S                     1.215277
      8 O                    -0.713536
      9 O                    -0.692250
     10 N                    -1.045617
     11 H                     0.387577
     12 Cl                   -0.046208
     13 Cl                   -0.073022
     14 S                     1.045328
     15 H                     0.164393
     16 H                     0.198830
     17 O                    -0.547164
     18 O                    -0.541344
     19 N                    -0.816917
     20 H                     0.394168
     21 H                     0.420945
  ----------------------------------------
  Sum of atomic charges =    -1.000000

  Related Dipole Moment =    13.3102 (X  5.3600 Y -12.1822 Z -0.1552)


 Charges (in A.U.) from Merz-Kollman fitting 
 -----------------------------------------------
 Center     Atomic                  MZ       
 Number     Number                  Charge
 -----------------------------------------------
    1          6                   -0.030562
    2          6                    0.057722
    3          6                   -0.013379
    4          6                   -0.090627
    5          6                   -0.007690
    6          6                   -0.265924
    7         16                    1.215277
    8          8                   -0.713536
    9          8                   -0.692250
   10          7                   -1.045617
   11          1                    0.387577
   12         17                   -0.046208
   13         17                   -0.073022
   14         16                    1.045328
   15          1                    0.164393
   16          1                    0.198830
   17          8                   -0.547164
   18          8                   -0.541344
   19          7                   -0.816917
   20          1                    0.394168
   21          1                    0.420945
 -----------------------------------------------
    4   -2358.3447637102      3.08e-05  
    5   -2358.3445110273      6.70e-06  Convergence criterion met
 ---------------------------------------
 SCF time:   CPU 120.52s  wall 15.00s 
(0)  E-EN(g) gas-phase elect-nuc energy                -2358.356260850 a.u.
(1)  E-EN(liq) elect-nuc energy of solute              -2358.344511027 a.u.
(2)  G-P(liq) polarization free energy of solvation           -75.4430 kcal/mol
(3)  G-ENP(liq) elect-nuc-pol free energy of system    -2358.464737144 a.u.
(4)  G-CDS(liq) cavity-dispersion-solvent structure 
     free energy                                                4.3078 kcal/mol
(5)  G-P-CDS(liq) = G-P(liq) + G-CDS(liq) = (2) + (4)         -71.1352 kcal/mol
(6)  G-S(liq) free energy of system = (1) + (5)        -2358.457872236 a.u.
(7)  DeltaE-EN(liq) elect-nuc reorganization
     energy of solute molecule (7) = (1) - (0)                  7.3731 kcal/mol
(8)  DeltaG-ENP(liq) elect-nuc-pol free energy
     of solvation (8) = (3) - (0)                             -68.0699 kcal/mol
(9)  DeltaG-S(liq) free energy of  solvation
     (9) = (6) - (0)                                          -63.7621 kcal/mol
 SCF   energy in the final basis set =    -2358.4578722363
 Total energy in the final basis set =    -2358.4578722363
 
 --------------------------------------------------------------
 
                    Orbital Energies (a.u.)
 --------------------------------------------------------------
 
 Alpha MOs
 -- Occupied --
********-102.6934 -90.1830 -90.1436 -19.6652 -19.6633 -19.6280 -19.6273
-14.8103 -14.7335 -10.6629 -10.6575 -10.6209 -10.6150 -10.6095 -10.6027
 -9.8464  -9.8424  -8.4964  -8.4560  -7.5708  -7.5670  -7.5641  -7.5636
 -7.5601  -7.5594  -6.4187  -6.4183  -6.4174  -6.3783  -6.3779  -6.3774
 -1.2661  -1.2182  -1.1516  -1.1024  -1.0539  -1.0386  -0.9869  -0.9828
 -0.9735  -0.8908  -0.8665  -0.7778  -0.7603  -0.7064  -0.6852  -0.6456
 -0.6230  -0.6088  -0.5996  -0.5891  -0.5788  -0.5581  -0.5424  -0.5387
 -0.5335  -0.5203  -0.4949  -0.4798  -0.4452  -0.4420  -0.4406  -0.4338
 -0.4267  -0.4175  -0.4069  -0.4049  -0.4019  -0.3957  -0.3868  -0.3815
 -0.3611  -0.3389  -0.3372  -0.3267  -0.3193
 -- Virtual --
 -0.0420  -0.0276  -0.0228  -0.0107  -0.0037   0.0085   0.0156   0.0184
  0.0204   0.0351   0.0416   0.0439   0.0555   0.0562   0.0626   0.0659
  0.0737   0.0820   0.0830   0.0919   0.0939   0.1006   0.1029   0.1067
  0.1122   0.1167   0.1214   0.1279   0.1318   0.1346   0.1393   0.1418
  0.1463   0.1501   0.1618   0.1622   0.1672   0.1725   0.1800   0.1831
  0.1871   0.1905   0.1932   0.2007   0.2044   0.2104   0.2188   0.2197
  0.2285   0.2322   0.2339   0.2374   0.2403   0.2441   0.2487   0.2590
  0.2661   0.2685   0.2725   0.2809   0.2824   0.2912   0.2938   0.2971
  0.3015   0.3040   0.3083   0.3103   0.3192   0.3236   0.3256   0.3377
  0.3387   0.3484   0.3627   0.3672   0.3739   0.3809   0.3918   0.4161
  0.4264   0.4344   0.4590   0.4883   0.5220   0.5472   0.5589   0.5646
  0.5702   0.5845   0.5966   0.6224   0.6277   0.6389   0.6466   0.6649
  0.6653   0.6734   0.6777   0.6858   0.6889   0.6993   0.7057   0.7236
  0.7322   0.7419   0.7510   0.7652   0.7744   0.7794   0.7924   0.8515
  0.8554   0.8765   0.8825   0.9058   0.9159   0.9355   0.9399   0.9494
  0.9508   0.9559   0.9678   0.9790   0.9957   1.0148   1.0244   1.0373
  1.0419   1.0509   1.0602   1.0714   1.0780   1.0923   1.1103   1.1187
  1.1209   1.1325   1.1372   1.1381   1.1483   1.1671   1.1779   1.1891
  1.1904   1.2034   1.2204   1.2442   1.2461   1.2656   1.2753   1.3162
  1.3296   1.3376   1.3527   1.3577   1.3678   1.3809   1.3846   1.3933
  1.3972   1.4096   1.4211   1.4330   1.4516   1.4675   1.4802   1.4828
  1.4915   1.5312   1.5485   1.5545   1.5617   1.5757   1.5963   1.6079
  1.6417   1.6912   1.7111   1.7747   1.7882   1.7987   1.8018   1.8096
  1.8239   1.8406   1.8516   1.8620   1.8712   1.8873   1.8892   1.9047
  1.9205   1.9433   1.9675   1.9883   1.9991   2.0112   2.0151   2.0393
  2.0540   2.1192   2.1308   2.1366   2.1528   2.1566   2.1733   2.1901
  2.2003   2.2168   2.2368   2.2385   2.2786   2.2853   2.3224   2.3403
  2.3628   2.4459   2.4607   2.4914   2.5677   2.5854   2.6116   2.6384
  2.6884   2.7226   2.7680   2.8047   2.8677   2.8996   2.9045   2.9151
  2.9392   3.0710   3.2794   3.8833   4.0355   4.0734   4.0787   4.1293
  4.2078   4.2417   4.2750   4.2996   4.3174   4.3746   4.4061   4.4407
  4.4687   4.5093   4.6705
 --------------------------------------------------------------
 
          Ground-State Mulliken Net Atomic Charges

     Atom                 Charge (a.u.)
  ----------------------------------------
      1 C                    -4.663992
      2 C                    -0.405920
      3 C                     0.074606
      4 C                     1.311277
      5 C                     1.400186
      6 C                     0.781634
      7 S                     0.530447
      8 O                    -0.720758
      9 O                    -0.783732
     10 N                    -1.102498
     11 H                     0.428680
     12 Cl                    0.038172
     13 Cl                    0.532592
     14 S                     2.042413
     15 H                     0.337477
     16 H                     0.305919
     17 O                    -0.634438
     18 O                    -0.719598
     19 N                    -0.777977
     20 H                     0.514330
     21 H                     0.511180
  ----------------------------------------
  Sum of atomic charges =    -1.000000

         Merz-Kollman ESP Net Atomic Charges

     Atom                 Charge (a.u.)
  ----------------------------------------
      1 C                    -0.030550
      2 C                     0.058018
      3 C                    -0.012294
      4 C                    -0.090765
      5 C                    -0.008060
      6 C                    -0.266324
      7 S                     1.217573
      8 O                    -0.714188
      9 O                    -0.692969
     10 N                    -1.046539
     11 H                     0.387533
     12 Cl                   -0.046385
     13 Cl                   -0.073611
     14 S                     1.045224
     15 H                     0.164393
     16 H                     0.198871
     17 O                    -0.547115
     18 O                    -0.541198
     19 N                    -0.816563
     20 H                     0.394058
     21 H                     0.420889
  ----------------------------------------
  Sum of atomic charges =    -1.000000

  Related Dipole Moment =    13.3132 (X  5.3602 Y -12.1854 Z -0.1596)

 -----------------------------------------------------------------
                    Cartesian Multipole Moments
 -----------------------------------------------------------------
    Charge (ESU x 10^10)
                -4.8032
    Dipole Moment (Debye)
         X       5.1990      Y     -12.1585      Z      -0.2126
       Tot      13.2251
    Quadrupole Moments (Debye-Ang)
        XX    -154.3490     XY      22.2096     YY    -143.0898
        XZ      18.0025     YZ      -7.5852     ZZ    -161.3354
    Octopole Moments (Debye-Ang^2)
       XXX     593.9987    XXY     -89.4601    XYY     232.7291
       YYY    -289.1466    XXZ     255.3483    XYZ     -14.4500
       YYZ     213.6520    XZZ     138.6428    YZZ     -41.6125
       ZZZ     837.8051
    Hexadecapole Moments (Debye-Ang^3)
      XXXX   -4785.6360   XXXY     795.1907   XXYY   -1193.0694
      XYYY     922.2138   YYYY   -2126.1438   XXXZ    -841.3125
      XXYZ    -172.1738   XYYZ    -255.7113   YYYZ    -416.5924
      XXZZ   -1737.5483   XYZZ     334.9839   YYZZ   -1194.5498
      XZZZ    -622.0302   YZZZ    -666.4095   ZZZZ   -5864.9467
 -----------------------------------------------------------------
 Total job time:  34.64s(wall), 259.34s(cpu) 
 Sat Jul  2 21:21:10 2022

        *************************************************************
        *                                                           *
        *  Thank you very much for using Q-Chem.  Have a nice day.  *
        *                                                           *
        *************************************************************


