                  Welcome to Q-Chem
     A Quantum Leap Into The Future Of Chemistry


 Q-Chem 5.4 (devel), Q-Chem, Inc., Pleasanton, CA (2021)

 E. Epifanovsky,  A. T. B. Gilbert,  Xintian Feng,  Joonho Lee,  Yuezhi Mao,  
 N. Mardirossian,  P. Pokhilko,  A. White,  M. Wormit,  M. P. Coons,  
 A. L. Dempwolff,  Zhengting Gan,  D. Hait,  P. R. Horn,  L. D. Jacobson,  
 I. Kaliman,  J. Kussmann,  A. W. Lange,  Ka Un Lao,  D. S. Levine,  Jie Liu,  
 S. C. McKenzie,  A. F. Morrison,  K. Nanda,  F. Plasser,  D. R. Rehn,  
 M. L. Vidal,  Zhi-Qiang You,  Ying Zhu,  B. Alam,  B. Albrecht,  
 A. Aldossary,  E. Alguire,  J. H. Andersen,  D. Barton,  K. Begam,  A. Behn,  
 Y. A. Bernard,  E. J. Berquist,  H. Burton,  A. Carreras,  K. Carter-Fenk,  
 R. Chakraborty,  A. D. Chien,  K. D. Closser,  V. Cofer-Shabica,  
 S. Dasgupta,  Jia Deng,  M. de Wergifosse,  M. Diedenhofen,  Hainam Do,  
 S. Ehlert,  Po-Tung Fang,  S. Fatehi,  Qingguo Feng,  T. Friedhoff,  
 J. Gayvert,  Qinghui Ge,  G. Gidofalvi,  M. Goldey,  J. Gomes,  
 C. Gonzalez-Espinoza,  S. Gulania,  A. Gunina,  M. W. D. Hanson-Heine,  
 P. H. P. Harbach,  A. W. Hauser,  M. F. Herbst,  M. Hernandez Vera,  
 M. Hodecker,  Z. C. Holden,  S. Houck,  Xunkun Huang,  Kerwin Hui,  
 B. C. Huynh,  M. Ivanov,  Hyunjun Ji,  Hanjie Jiang,  B. Kaduk,  S. Kaehler,  
 K. Khistyaev,  Jaehoon Kim,  P. Klunzinger,  Z. Koczor-Benda,  
 Joong Hoon Koh,  D. Kosenkov,  L. Koulias,  T. Kowalczyk,  C. M. Krauter,  
 K. Kue,  A. Kunitsa,  T. Kus,  A. Landau,  K. V. Lawler,  D. Lefrancois,  
 S. Lehtola,  Rain Li,  Yi-Pei Li,  Jiashu Liang,  M. Liebenthal,  
 Hung-Hsuan Lin,  You-Sheng Lin,  Fenglai Liu,  Kuan-Yu Liu,  
 M. Loipersberger,  A. Luenser,  A. Manjanath,  P. Manohar,  E. Mansoor,  
 S. F. Manzer,  Shan-Ping Mao,  A. V. Marenich,  T. Markovich,  S. Mason,  
 S. A. Maurer,  P. F. McLaughlin,  M. F. S. J. Menger,  J.-M. Mewes,  
 S. A. Mewes,  P. Morgante,  J. W. Mullinax,  K. J. Oosterbaan,  G. Paran,  
 Alexander C. Paul,  Suranjan K. Paul,  F. Pavosevic,  Zheng Pei,  S. Prager,  
 E. I. Proynov,  E. Ramos,  B. Rana,  A. E. Rask,  A. Rettig,  R. M. Richard,  
 F. Rob,  E. Rossomme,  T. Scheele,  M. Scheurer,  M. Schneider,  
 N. Sergueev,  S. M. Sharada,  W. Skomorowski,  D. W. Small,  C. J. Stein,  
 Yu-Chuan Su,  E. J. Sundstrom,  Zhen Tao,  J. Thirman,  T. Tsuchimochi,  
 N. M. Tubman,  S. P. Veccham,  O. Vydrov,  J. Wenzel,  J. Witte,  A. Yamada,  
 Kun Yao,  S. Yeganeh,  S. R. Yost,  A. Zech,  Igor Ying Zhang,  Xing Zhang,  
 Yu Zhang,  D. Zuev,  A. Aspuru-Guzik,  A. T. Bell,  N. A. Besley,  
 K. B. Bravaya,  B. R. Brooks,  D. Casanova,  Jeng-Da Chai,  S. Coriani,  
 C. J. Cramer,  A. E. DePrince, III,  R. A. DiStasio Jr.,  A. Dreuw,  
 B. D. Dunietz,  T. R. Furlani,  W. A. Goddard III,  S. Grimme,  
 S. Hammes-Schiffer,  T. Head-Gordon,  W. J. Hehre,  Chao-Ping Hsu,  
 T.-C. Jagau,  Yousung Jung,  A. Klamt,  Jing Kong,  D. S. Lambrecht,  
 WanZhen Liang,  N. J. Mayhall,  C. W. McCurdy,  J. B. Neaton,  
 C. Ochsenfeld,  J. A. Parkhill,  R. Peverati,  V. A. Rassolov,  Yihan Shao,  
 L. V. Slipchenko,  T. Stauch,  R. P. Steele,  J. E. Subotnik,  
 A. J. W. Thom,  A. Tkatchenko,  D. G. Truhlar,  T. Van Voorhis,  
 T. A. Wesolowski,  K. B. Whaley,  H. L. Woodcock III,  P. M. Zimmerman,  
 S. Faraji,  P. M. W. Gill,  M. Head-Gordon,  J. M. Herbert,  A. I. Krylov

 Additional authors for Version 5.4.1: 
 S. Kotaru,  Shaozhi Li,  Xiangyuan Li,  F. Matz,  A. Molle,  Haisheng Ren,  
 Yingli Su,  Hung-Yi Tsai,  C. Utku,  Fang Wang

 Contributors to earlier versions of Q-Chem not listed above: 
 R. D. Adamson,  B. Austin,  R. Baer,  J. Baker,  G. J. O. Beran,  
 K. Brandhorst,  S. T. Brown,  E. F. C. Byrd,  A. K. Chakraborty,  
 G. K. L. Chan,  Chun-Min Chang,  Yunqing Chen,  C.-L. Cheng,  
 Siu Hung Chien,  D. M. Chipman,  D. L. Crittenden,  H. Dachsel,  
 R. J. Doerksen,  A. D. Dutoi,  R. G. Edgar,  J. Fosso-Tande,  
 L. Fusti-Molnar,  D. Ghosh,  A. Ghysels,  A. Golubeva-Zadorozhnaya,  
 J. Gonthier,  M. S. Gordon,  S. R. Gwaltney,  G. Hawkins,  J. E. Herr,  
 A. Heyden,  S. Hirata,  E. G. Hohenstein,  G. Kedziora,  F. J. Keil,  
 C. Kelley,  Jihan Kim,  R. A. King,  R. Z. Khaliullin,  P. P. Korambath,  
 W. Kurlancheek,  A. Laurent,  A. M. Lee,  M. S. Lee,  S. V. Levchenko,  
 Ching Yeh Lin,  D. Liotard,  E. Livshits,  R. C. Lochan,  I. Lotan,  
 L. A. Martinez-Martinez,  P. E. Maslen,  N. Nair,  D. P. O'Neill,  
 D. Neuhauser,  E. Neuscamman,  C. M. Oana,  R. Olivares-Amaya,  R. Olson,  
 T. M. Perrine,  B. Peters,  P. A. Pieniazek,  A. Prociuk,  Y. M. Rhee,  
 J. Ritchie,  M. A. Rohrdanz,  E. Rosta,  N. J. Russ,  H. F. Schaefer III,  
 M. W. Schmidt,  N. E. Schultz,  S. Sharma,  N. Shenvi,  C. D. Sherrill,  
 A. C. Simmonett,  A. Sodt,  T. Stein,  D. Stuck,  K. S. Thanthiriwatte,  
 V. Vanovschi,  L. Vogt,  Tao Wang,  A. Warshel,  M. A. Watson,  
 C. F. Williams,  Q. Wu,  X. Xu,  Jun Yang,  W. Zhang,  Yan Zhao

 Please cite Q-Chem as follows:
 Y. Shao et al., Mol. Phys. 113, 184-215 (2015)
 DOI: 10.1080/00268976.2014.952696

 Q-Chem 5.4.1 for Intel X86 EM64T Linux

 Parts of Q-Chem use Armadillo 9.800.1 (Horizon Scraper).
 http://arma.sourceforge.net/

 Q-Chem begins on Sat Jul  2 12:21:04 2022  

 Host: gadi-cpu-clx-1617.gadi.nci.org.au
0

     Scratch files written to /jobfs/50068336.gadi-pbs/qchem1021392//
 Processing $rem in /apps/qchem/5.4.1/config/preferences:
 Processing $rem in /home/561/yj5695/.qchemrc:
 Symmetry turned off for PCM/SM12/SMD calculation
 Method-specific promolecule density matrix will be built for SM12 calculation

 Checking the input file for inconsistencies... 	...done.

--------------------------------------------------------------
User input:
--------------------------------------------------------------
$molecule
-1  1
S -2.1973282754  1.3705892637 -1.0360985931
O -2.1725651335  2.8546353664 -1.1939054568
O -3.5548242513  0.8176452815 -0.7344353903
N -1.070840213  0.9323607501 -0.0466100378
H -1.2297678977 -0.046590363  0.201995169
C -1.8252201054  0.8103926774 -2.7258580688
N -1.7575319765 -0.6413373425 -2.8159976612
C -1.0622136194 -1.0789179843 -4.057318139
C -2.1713784291 -1.1366612177 -5.0718096599
C -3.357173259 -1.1673598087 -4.351165134
O -3.129732829 -1.0961295726 -2.9894099895
C -2.203772185 -1.2157802121 -6.4557605157
C -3.4491352417 -1.327814664 -7.088239644
C -4.6276775585 -1.3640618831 -6.3391497872
C -4.6041515975 -1.2820090078 -4.9414873194
H -0.8378346585  1.2220041573 -2.943818794
H -2.5703002495  1.2513864284 -3.3996726339
H -0.258722638 -0.3803003057 -4.2927085735
H -1.2859039989 -1.1959495109 -7.0364404895
H -3.4982662433 -1.3862488091 -8.1711813909
H -5.5839897804 -1.4493707194 -6.8467349288
H -5.5127319526 -1.3018975945 -4.3485303341
H -0.6312779068 -2.0709849294 -3.8903526277
$end

$rem
jobtype sp
exchange M062X
basis 6-31+G*
SMX_GAS_PHASE = TRUE
solvent_method sm12
$end

$smx
solvent water
charges mk
$end
--------------------------------------------------------------
 ----------------------------------------------------------------
             Standard Nuclear Orientation (Angstroms)
    I     Atom           X                Y                Z
 ----------------------------------------------------------------
    1      S      -2.1973282754     1.3705892637    -1.0360985931
    2      O      -2.1725651335     2.8546353664    -1.1939054568
    3      O      -3.5548242513     0.8176452815    -0.7344353903
    4      N      -1.0708402130     0.9323607501    -0.0466100378
    5      H      -1.2297678977    -0.0465903630     0.2019951690
    6      C      -1.8252201054     0.8103926774    -2.7258580688
    7      N      -1.7575319765    -0.6413373425    -2.8159976612
    8      C      -1.0622136194    -1.0789179843    -4.0573181390
    9      C      -2.1713784291    -1.1366612177    -5.0718096599
   10      C      -3.3571732590    -1.1673598087    -4.3511651340
   11      O      -3.1297328290    -1.0961295726    -2.9894099895
   12      C      -2.2037721850    -1.2157802121    -6.4557605157
   13      C      -3.4491352417    -1.3278146640    -7.0882396440
   14      C      -4.6276775585    -1.3640618831    -6.3391497872
   15      C      -4.6041515975    -1.2820090078    -4.9414873194
   16      H      -0.8378346585     1.2220041573    -2.9438187940
   17      H      -2.5703002495     1.2513864284    -3.3996726339
   18      H      -0.2587226380    -0.3803003057    -4.2927085735
   19      H      -1.2859039989    -1.1959495109    -7.0364404895
   20      H      -3.4982662433    -1.3862488091    -8.1711813909
   21      H      -5.5839897804    -1.4493707194    -6.8467349288
   22      H      -5.5127319526    -1.3018975945    -4.3485303341
   23      H      -0.6312779068    -2.0709849294    -3.8903526277
 ----------------------------------------------------------------
 Nuclear Repulsion Energy =        1030.31676338 hartrees
 There are       56 alpha and       56 beta electrons
 Requested basis set is 6-31+G(d)
 There are 89 shells and 288 basis functions

 Total QAlloc Memory Limit   2000 MB
 Mega-Array Size       188 MB
 MEM_STATIC part       192 MB
 A cutoff of  1.0D-08 yielded   3059 shell pairs
 There are     33896 function pairs
 Smallest overlap matrix eigenvalue = 2.22E-06

 Q-Chem warning in module stvman/mkSTV.C, line 323:

 Overlap eigenvalue is smaller than square root of threshold
 Use THRESH >= 12 to get rid of this warning


 Scale SEOQF with 1.000000e-02/1.000000e-01/1.000000e-02

 Standard Electronic Orientation quadrupole field applied
 Nucleus-field energy     =    -0.0000000012 hartrees
 ================ Generating on-the-fly Promolecule Density  ================
Attempting to make child job directory: /jobfs/50068336.gadi-pbs/qchem1021392//Frg1/
Attempting to make child job directory: /jobfs/50068336.gadi-pbs/qchem1021392//Frg2/
Attempting to make child job directory: /jobfs/50068336.gadi-pbs/qchem1021392//Frg3/
Attempting to make child job directory: /jobfs/50068336.gadi-pbs/qchem1021392//Frg4/
Attempting to make child job directory: /jobfs/50068336.gadi-pbs/qchem1021392//Frg5/
Creating input file /jobfs/50068336.gadi-pbs/qchem1021392/Frg1.input
using default PutDataFrgm: nothing
calling putenv with: QCSCRATCH=/jobfs/50068336.gadi-pbs/qchem1021392/ 
Spawning Job For Fragment 0
Done Job For Fragment 0
calling putenv with: QCSCRATCH=/jobfs/50068336.gadi-pbs 
calling putenv with: QCTHREADS=8 
Creating input file /jobfs/50068336.gadi-pbs/qchem1021392/Frg2.input
using default PutDataFrgm: nothing
calling putenv with: QCSCRATCH=/jobfs/50068336.gadi-pbs/qchem1021392/ 
Spawning Job For Fragment 1
Done Job For Fragment 1
calling putenv with: QCSCRATCH=/jobfs/50068336.gadi-pbs 
calling putenv with: QCTHREADS=8 
Creating input file /jobfs/50068336.gadi-pbs/qchem1021392/Frg3.input
using default PutDataFrgm: nothing
calling putenv with: QCSCRATCH=/jobfs/50068336.gadi-pbs/qchem1021392/ 
Spawning Job For Fragment 2
Done Job For Fragment 2
calling putenv with: QCSCRATCH=/jobfs/50068336.gadi-pbs 
calling putenv with: QCTHREADS=8 
Creating input file /jobfs/50068336.gadi-pbs/qchem1021392/Frg4.input
using default PutDataFrgm: nothing
calling putenv with: QCSCRATCH=/jobfs/50068336.gadi-pbs/qchem1021392/ 
Spawning Job For Fragment 3
Done Job For Fragment 3
calling putenv with: QCSCRATCH=/jobfs/50068336.gadi-pbs 
calling putenv with: QCTHREADS=8 
Creating input file /jobfs/50068336.gadi-pbs/qchem1021392/Frg5.input
using default PutDataFrgm: nothing
calling putenv with: QCSCRATCH=/jobfs/50068336.gadi-pbs/qchem1021392/ 
Spawning Job For Fragment 4
Done Job For Fragment 4
calling putenv with: QCSCRATCH=/jobfs/50068336.gadi-pbs 
calling putenv with: QCTHREADS=8 
 Time for running child jobs:  CPU 1.08 s  wall 1.71 s
 ============= Method Specific Promolecule Density Constructed =============
 Guess from superposition of atomic densities
 Warning:  Energy on first SCF cycle will be non-variational
 SAD guess density has 111.000000 electrons

 -----------------------------------------------------------------------
  General SCF calculation program by
  Eric Jon Sundstrom, Paul Horn, Yuezhi Mao, Dmitri Zuev, Alec White,
  David Stuck, Shaama M.S., Shane Yost, Joonho Lee, David Small,
  Daniel Levine, Susi Lehtola, Hugh Burton, Evgeny Epifanovsky,
  Bang C. Huynh
 -----------------------------------------------------------------------
 Exchange:     0.5400 Hartree-Fock + 1.0000 M06-2X
 Correlation:  1.0000 M06-2X
 Using SG-3 standard quadrature grid
 using 8 threads for integral computing
 -------------------------------------------------------
 OpenMP Integral computing Module                
 Release: version 1.0, May 2013, Q-Chem Inc. Pittsburgh 
 -------------------------------------------------------
 A restricted SCF calculation will be
 performed using DIIS
 SCF converges when DIIS error is below 1.0e-05
 ---------------------------------------
  Cycle       Energy         DIIS error
 ---------------------------------------
    1   -1047.4495045063      4.43e-02  
    2   -1042.9595479173      5.69e-03  
    3   -1042.8368688494      7.19e-03  
    4   -1043.2482652618      7.64e-04  
    5   -1043.2530113224      3.40e-04  
    6   -1043.2540228080      1.02e-04  
    7   -1043.2541096938      3.24e-05  
    8   -1043.2541203831      6.55e-06  Convergence criterion met
 ---------------------------------------
 SCF time:   CPU 111.30s  wall 14.00s 
 SCF   energy in the final basis set =    -1043.2541203831
 Total energy in the final basis set =    -1043.2541203831
 Exchange:     0.5400 Hartree-Fock + 1.0000 M06-2X
 Correlation:  1.0000 M06-2X
 Using SG-3 standard quadrature grid
 
 SM12 calculation using Merz-Singh-Kollman charges
 Citation of the SM12 model:
 Marenich, A.V.; Cramer, C.J.; Truhlar, D.G.
 J. Chem. Theory Comput. 2013, 9, 609-612.
 iSolventCode=           1
 Solvent: water                                                           
 
  Building new vdw surfaces
         Merz-Kollman ESP Net Atomic Charges

     Atom                 Charge (a.u.)
  ----------------------------------------
      1 S                     1.246040
      2 O                    -0.687141
      3 O                    -0.677744
      4 N                    -1.018929
      5 H                     0.355438
      6 C                    -0.561190
      7 N                    -0.107809
      8 C                    -0.293562
      9 C                     0.037385
     10 C                     0.491900
     11 O                    -0.264839
     12 C                    -0.205383
     13 C                    -0.267619
     14 C                    -0.129854
     15 C                    -0.370417
     16 H                     0.239530
     17 H                     0.216394
     18 H                     0.187029
     19 H                     0.155497
     20 H                     0.155611
     21 H                     0.145033
     22 H                     0.208092
     23 H                     0.146538
  ----------------------------------------
  Sum of atomic charges =    -1.000000

  Related Dipole Moment =    14.5158 (X 12.1185 Y -7.7170 Z  2.0734)


 Charges (in A.U.) from Merz-Kollman fitting 
 -----------------------------------------------
 Center     Atomic                  MZ       
 Number     Number                  Charge
 -----------------------------------------------
    1         16                    1.246040
    2          8                   -0.687141
    3          8                   -0.677744
    4          7                   -1.018929
    5          1                    0.355438
    6          6                   -0.561190
    7          7                   -0.107809
    8          6                   -0.293562
    9          6                    0.037385
   10          6                    0.491900
   11          8                   -0.264839
   12          6                   -0.205383
   13          6                   -0.267619
   14          6                   -0.129854
   15          6                   -0.370417
   16          1                    0.239530
   17          1                    0.216394
   18          1                    0.187029
   19          1                    0.155497
   20          1                    0.155611
   21          1                    0.145033
   22          1                    0.208092
   23          1                    0.146538
 -----------------------------------------------
 A restricted SCF calculation will be
 performed using Roothaan-Hall, DIIS
 SCF converges when DIIS error is below 1.0e-05
 ---------------------------------------
  Cycle       Energy         DIIS error
 ---------------------------------------
         Merz-Kollman ESP Net Atomic Charges

     Atom                 Charge (a.u.)
  ----------------------------------------
      1 S                     1.275575
      2 O                    -0.743085
      3 O                    -0.722964
      4 N                    -1.075331
      5 H                     0.378648
      6 C                    -0.495735
      7 N                    -0.121921
      8 C                    -0.333068
      9 C                     0.083192
     10 C                     0.450696
     11 O                    -0.307477
     12 C                    -0.213996
     13 C                    -0.257421
     14 C                    -0.139783
     15 C                    -0.379328
     16 H                     0.245549
     17 H                     0.217205
     18 H                     0.219435
     19 H                     0.180592
     20 H                     0.173861
     21 H                     0.166940
     22 H                     0.223545
     23 H                     0.174872
  ----------------------------------------
  Sum of atomic charges =    -1.000000

  Related Dipole Moment =    15.3469 (X 12.6113 Y -8.7271 Z -0.5667)


 Charges (in A.U.) from Merz-Kollman fitting 
 -----------------------------------------------
 Center     Atomic                  MZ       
 Number     Number                  Charge
 -----------------------------------------------
    1         16                    1.275575
    2          8                   -0.743085
    3          8                   -0.722964
    4          7                   -1.075331
    5          1                    0.378648
    6          6                   -0.495735
    7          7                   -0.121921
    8          6                   -0.333068
    9          6                    0.083192
   10          6                    0.450696
   11          8                   -0.307477
   12          6                   -0.213996
   13          6                   -0.257421
   14          6                   -0.139783
   15          6                   -0.379328
   16          1                    0.245549
   17          1                    0.217205
   18          1                    0.219435
   19          1                    0.180592
   20          1                    0.173861
   21          1                    0.166940
   22          1                    0.223545
   23          1                    0.174872
 -----------------------------------------------
    1   -1043.2541213982      5.99e-04  Roothaan Step
 ---------------------------------------
  Cycle       Energy         DIIS error
 ---------------------------------------
         Merz-Kollman ESP Net Atomic Charges

     Atom                 Charge (a.u.)
  ----------------------------------------
      1 S                     1.304884
      2 O                    -0.746336
      3 O                    -0.725463
      4 N                    -1.085862
      5 H                     0.373920
      6 C                    -0.564989
      7 N                    -0.093058
      8 C                    -0.417280
      9 C                     0.100894
     10 C                     0.469067
     11 O                    -0.273849
     12 C                    -0.247946
     13 C                    -0.258203
     14 C                    -0.151028
     15 C                    -0.373327
     16 H                     0.254582
     17 H                     0.231237
     18 H                     0.237591
     19 H                     0.192518
     20 H                     0.180007
     21 H                     0.172242
     22 H                     0.222658
     23 H                     0.197740
  ----------------------------------------
  Sum of atomic charges =    -1.000000

  Related Dipole Moment =    15.1114 (X 12.1598 Y -8.9575 Z -0.5073)


 Charges (in A.U.) from Merz-Kollman fitting 
 -----------------------------------------------
 Center     Atomic                  MZ       
 Number     Number                  Charge
 -----------------------------------------------
    1         16                    1.304884
    2          8                   -0.746336
    3          8                   -0.725463
    4          7                   -1.085862
    5          1                    0.373920
    6          6                   -0.564989
    7          7                   -0.093058
    8          6                   -0.417280
    9          6                    0.100894
   10          6                    0.469067
   11          8                   -0.273849
   12          6                   -0.247946
   13          6                   -0.258203
   14          6                   -0.151028
   15          6                   -0.373327
   16          1                    0.254582
   17          1                    0.231237
   18          1                    0.237591
   19          1                    0.192518
   20          1                    0.180007
   21          1                    0.172242
   22          1                    0.222658
   23          1                    0.197740
 -----------------------------------------------
    1   -1043.2436320232      3.58e-04  
         Merz-Kollman ESP Net Atomic Charges

     Atom                 Charge (a.u.)
  ----------------------------------------
      1 S                     1.315428
      2 O                    -0.758125
      3 O                    -0.735378
      4 N                    -1.092998
      5 H                     0.376446
      6 C                    -0.525668
      7 N                    -0.101700
      8 C                    -0.393547
      9 C                     0.104484
     10 C                     0.452542
     11 O                    -0.295411
     12 C                    -0.236029
     13 C                    -0.252738
     14 C                    -0.149101
     15 C                    -0.373510
     16 H                     0.249199
     17 H                     0.224039
     18 H                     0.234470
     19 H                     0.190091
     20 H                     0.178851
     21 H                     0.172274
     22 H                     0.224189
     23 H                     0.192191
  ----------------------------------------
  Sum of atomic charges =    -1.000000

  Related Dipole Moment =    15.3393 (X 12.3918 Y -8.9960 Z -0.8999)


 Charges (in A.U.) from Merz-Kollman fitting 
 -----------------------------------------------
 Center     Atomic                  MZ       
 Number     Number                  Charge
 -----------------------------------------------
    1         16                    1.315428
    2          8                   -0.758125
    3          8                   -0.735378
    4          7                   -1.092998
    5          1                    0.376446
    6          6                   -0.525668
    7          7                   -0.101700
    8          6                   -0.393547
    9          6                    0.104484
   10          6                    0.452542
   11          8                   -0.295411
   12          6                   -0.236029
   13          6                   -0.252738
   14          6                   -0.149101
   15          6                   -0.373510
   16          1                    0.249199
   17          1                    0.224039
   18          1                    0.234470
   19          1                    0.190091
   20          1                    0.178851
   21          1                    0.172274
   22          1                    0.224189
   23          1                    0.192191
 -----------------------------------------------
    2   -1043.2434131797      3.89e-04  
         Merz-Kollman ESP Net Atomic Charges

     Atom                 Charge (a.u.)
  ----------------------------------------
      1 S                     1.309515
      2 O                    -0.756581
      3 O                    -0.733769
      4 N                    -1.094553
      5 H                     0.377494
      6 C                    -0.533257
      7 N                    -0.103841
      8 C                    -0.394462
      9 C                     0.106600
     10 C                     0.448666
     11 O                    -0.290640
     12 C                    -0.239100
     13 C                    -0.251548
     14 C                    -0.150861
     15 C                    -0.372034
     16 H                     0.251850
     17 H                     0.227223
     18 H                     0.235388
     19 H                     0.191908
     20 H                     0.180075
     21 H                     0.173571
     22 H                     0.224842
     23 H                     0.193512
  ----------------------------------------
  Sum of atomic charges =    -1.000000

  Related Dipole Moment =    15.3423 (X 12.3506 Y -9.0468 Z -1.0021)


 Charges (in A.U.) from Merz-Kollman fitting 
 -----------------------------------------------
 Center     Atomic                  MZ       
 Number     Number                  Charge
 -----------------------------------------------
    1         16                    1.309515
    2          8                   -0.756581
    3          8                   -0.733769
    4          7                   -1.094553
    5          1                    0.377494
    6          6                   -0.533257
    7          7                   -0.103841
    8          6                   -0.394462
    9          6                    0.106600
   10          6                    0.448666
   11          8                   -0.290640
   12          6                   -0.239100
   13          6                   -0.251548
   14          6                   -0.150861
   15          6                   -0.372034
   16          1                    0.251850
   17          1                    0.227223
   18          1                    0.235388
   19          1                    0.191908
   20          1                    0.180075
   21          1                    0.173571
   22          1                    0.224842
   23          1                    0.193512
 -----------------------------------------------
    3   -1043.2421436373      5.49e-05  
         Merz-Kollman ESP Net Atomic Charges

     Atom                 Charge (a.u.)
  ----------------------------------------
      1 S                     1.315553
      2 O                    -0.759041
      3 O                    -0.735896
      4 N                    -1.096098
      5 H                     0.377008
      6 C                    -0.534907
      7 N                    -0.099989
      8 C                    -0.399134
      9 C                     0.108931
     10 C                     0.448593
     11 O                    -0.292141
     12 C                    -0.240748
     13 C                    -0.250674
     14 C                    -0.151684
     15 C                    -0.371257
     16 H                     0.251932
     17 H                     0.227270
     18 H                     0.236411
     19 H                     0.192393
     20 H                     0.180331
     21 H                     0.173870
     22 H                     0.224776
     23 H                     0.194501
  ----------------------------------------
  Sum of atomic charges =    -1.000000

  Related Dipole Moment =    15.3559 (X 12.3503 Y -9.0669 Z -1.0322)


 Charges (in A.U.) from Merz-Kollman fitting 
 -----------------------------------------------
 Center     Atomic                  MZ       
 Number     Number                  Charge
 -----------------------------------------------
    1         16                    1.315553
    2          8                   -0.759041
    3          8                   -0.735896
    4          7                   -1.096098
    5          1                    0.377008
    6          6                   -0.534907
    7          7                   -0.099989
    8          6                   -0.399134
    9          6                    0.108931
   10          6                    0.448593
   11          8                   -0.292141
   12          6                   -0.240748
   13          6                   -0.250674
   14          6                   -0.151684
   15          6                   -0.371257
   16          1                    0.251932
   17          1                    0.227270
   18          1                    0.236411
   19          1                    0.192393
   20          1                    0.180331
   21          1                    0.173870
   22          1                    0.224776
   23          1                    0.194501
 -----------------------------------------------
    4   -1043.2414685011      3.40e-05  
    5   -1043.2412338129      5.83e-06  Convergence criterion met
 ---------------------------------------
 SCF time:   CPU 97.53s  wall 12.00s 
(0)  E-EN(g) gas-phase elect-nuc energy                -1043.254120383 a.u.
(1)  E-EN(liq) elect-nuc energy of solute              -1043.241233813 a.u.
(2)  G-P(liq) polarization free energy of solvation           -86.6965 kcal/mol
(3)  G-ENP(liq) elect-nuc-pol free energy of system    -1043.379393500 a.u.
(4)  G-CDS(liq) cavity-dispersion-solvent structure 
     free energy                                                1.2594 kcal/mol
(5)  G-P-CDS(liq) = G-P(liq) + G-CDS(liq) = (2) + (4)         -85.4371 kcal/mol
(6)  G-S(liq) free energy of system = (1) + (5)        -1043.377386469 a.u.
(7)  DeltaE-EN(liq) elect-nuc reorganization
     energy of solute molecule (7) = (1) - (0)                  8.0864 kcal/mol
(8)  DeltaG-ENP(liq) elect-nuc-pol free energy
     of solvation (8) = (3) - (0)                             -78.6101 kcal/mol
(9)  DeltaG-S(liq) free energy of  solvation
     (9) = (6) - (0)                                          -77.3506 kcal/mol
 SCF   energy in the final basis set =    -1043.3773864688
 Total energy in the final basis set =    -1043.3773864688
 
 --------------------------------------------------------------
 
                    Orbital Energies (a.u.)
 --------------------------------------------------------------
 
 Alpha MOs
 -- Occupied --
-90.1315 -19.7104 -19.6251 -19.6225 -14.8442 -14.7289 -10.6230 -10.6097
-10.6038 -10.5752 -10.5744 -10.5725 -10.5705 -10.5662  -8.4454  -6.3678
 -6.3670  -6.3664  -1.2427  -1.2093  -1.0948  -1.0099  -0.9797  -0.9695
 -0.8916  -0.8559  -0.8278  -0.7468  -0.7087  -0.7009  -0.6735  -0.6134
 -0.6022  -0.5860  -0.5751  -0.5657  -0.5374  -0.5287  -0.5238  -0.5126
 -0.5061  -0.4945  -0.4713  -0.4598  -0.4381  -0.4271  -0.4244  -0.4131
 -0.3967  -0.3793  -0.3619  -0.3435  -0.3287  -0.3210  -0.3101  -0.2906
 -- Virtual --
 -0.0233  -0.0134  -0.0055  -0.0006   0.0032   0.0069   0.0117   0.0145
  0.0219   0.0318   0.0361   0.0405   0.0468   0.0557   0.0648   0.0700
  0.0735   0.0808   0.0903   0.1011   0.1042   0.1081   0.1131   0.1205
  0.1211   0.1273   0.1361   0.1368   0.1456   0.1510   0.1560   0.1585
  0.1656   0.1677   0.1713   0.1767   0.1822   0.1854   0.1915   0.1934
  0.2007   0.2039   0.2088   0.2161   0.2239   0.2257   0.2310   0.2374
  0.2403   0.2428   0.2479   0.2571   0.2622   0.2652   0.2691   0.2756
  0.2813   0.2869   0.2940   0.2997   0.3029   0.3072   0.3165   0.3200
  0.3312   0.3339   0.3372   0.3442   0.3611   0.3673   0.3768   0.3812
  0.3920   0.3964   0.4089   0.4167   0.4210   0.4441   0.4590   0.4810
  0.4943   0.6000   0.6068   0.6216   0.6524   0.6605   0.6749   0.6969
  0.7116   0.7215   0.7258   0.7384   0.7648   0.7704   0.7799   0.7861
  0.7881   0.8075   0.8217   0.8315   0.8435   0.8580   0.8655   0.8769
  0.9270   0.9483   0.9708   0.9823   0.9850   0.9979   1.0018   1.0053
  1.0294   1.0358   1.0527   1.0542   1.0669   1.0721   1.0874   1.1076
  1.1164   1.1292   1.1510   1.1627   1.1773   1.1906   1.1926   1.2015
  1.2193   1.2281   1.2477   1.2714   1.2808   1.2959   1.3114   1.3385
  1.3488   1.3537   1.3766   1.3864   1.3990   1.4044   1.4200   1.4326
  1.4377   1.4400   1.4608   1.4830   1.5104   1.5227   1.5357   1.5459
  1.5686   1.5912   1.6406   1.6981   1.7263   1.7383   1.7798   1.7984
  1.8181   1.8274   1.8455   1.8532   1.8749   1.8836   1.8957   1.9000
  1.9243   1.9442   1.9706   1.9869   1.9991   2.0103   2.0195   2.0259
  2.0438   2.0598   2.0781   2.0994   2.1146   2.1396   2.1622   2.1706
  2.1924   2.2070   2.2347   2.2471   2.2625   2.2788   2.2836   2.3119
  2.3366   2.3478   2.3795   2.4047   2.4382   2.5231   2.5384   2.5545
  2.5832   2.6166   2.6510   2.6708   2.6789   2.6940   2.7469   2.7677
  2.8090   2.8323   2.8689   2.8718   2.9581   2.9752   3.0351   3.0897
  3.2170   3.4424   3.9834   4.0731   4.1345   4.1867   4.2272   4.2690
  4.2918   4.3655   4.4257   4.4515   4.4828   4.5524   4.6823   4.8694
 --------------------------------------------------------------
 
          Ground-State Mulliken Net Atomic Charges

     Atom                 Charge (a.u.)
  ----------------------------------------
      1 S                     0.613982
      2 O                    -0.894592
      3 O                    -0.814907
      4 N                    -1.073869
      5 H                     0.399691
      6 C                    -0.485714
      7 N                    -0.605382
      8 C                     0.303766
      9 C                     0.864312
     10 C                    -2.576621
     11 O                    -0.256104
     12 C                     0.547478
     13 C                     0.571062
     14 C                     0.029333
     15 C                     0.123383
     16 H                     0.293799
     17 H                     0.283869
     18 H                     0.293607
     19 H                     0.284195
     20 H                     0.263245
     21 H                     0.268701
     22 H                     0.272764
     23 H                     0.294001
  ----------------------------------------
  Sum of atomic charges =    -1.000000

         Merz-Kollman ESP Net Atomic Charges

     Atom                 Charge (a.u.)
  ----------------------------------------
      1 S                     1.317093
      2 O                    -0.759411
      3 O                    -0.736269
      4 N                    -1.096926
      5 H                     0.376995
      6 C                    -0.534470
      7 N                    -0.100509
      8 C                    -0.399470
      9 C                     0.109415
     10 C                     0.448059
     11 O                    -0.291813
     12 C                    -0.240820
     13 C                    -0.250311
     14 C                    -0.151863
     15 C                    -0.371027
     16 H                     0.251753
     17 H                     0.227198
     18 H                     0.236490
     19 H                     0.192375
     20 H                     0.180284
     21 H                     0.173869
     22 H                     0.224765
     23 H                     0.194594
  ----------------------------------------
  Sum of atomic charges =    -1.000000

  Related Dipole Moment =    15.3531 (X 12.3456 Y -9.0675 Z -1.0409)

 -----------------------------------------------------------------
                    Cartesian Multipole Moments
 -----------------------------------------------------------------
    Charge (ESU x 10^10)
                -4.8032
    Dipole Moment (Debye)
         X      12.3247      Y      -9.0227      Z      -1.0469
       Tot      15.3102
    Quadrupole Moments (Debye-Ang)
        XX    -125.5926     XY      17.8242     YY    -119.0066
        XZ      -4.8450     YZ       5.7431     ZZ     -70.8614
    Octopole Moments (Debye-Ang^2)
       XXX     785.9993    XXY     -46.4311    XYY     300.7986
       YYY     -33.7037    XXZ     290.9471    XYZ     -15.8532
       YYZ     345.0059    XZZ     204.3106    YZZ     -12.9106
       ZZZ     752.3658
    Hexadecapole Moments (Debye-Ang^3)
      XXXX   -4523.5540   XXXY       9.1214   XXYY   -1090.6644
      XYYY    -122.5960   YYYY   -1337.3839   XXXZ   -2402.3172
      XXYZ    -157.5178   XYYZ   -1016.1187   YYYZ    -753.3793
      XXZZ   -1966.0003   XYZZ      -9.6430   YYZZ   -1815.3606
      XZZZ   -2305.2717   YZZZ    -584.9733   ZZZZ   -7743.6042
 -----------------------------------------------------------------
 Total job time:  28.42s(wall), 213.36s(cpu) 
 Sat Jul  2 12:21:32 2022

        *************************************************************
        *                                                           *
        *  Thank you very much for using Q-Chem.  Have a nice day.  *
        *                                                           *
        *************************************************************


