                  Welcome to Q-Chem
     A Quantum Leap Into The Future Of Chemistry


 Q-Chem 5.4 (devel), Q-Chem, Inc., Pleasanton, CA (2021)

 E. Epifanovsky,  A. T. B. Gilbert,  Xintian Feng,  Joonho Lee,  Yuezhi Mao,  
 N. Mardirossian,  P. Pokhilko,  A. White,  M. Wormit,  M. P. Coons,  
 A. L. Dempwolff,  Zhengting Gan,  D. Hait,  P. R. Horn,  L. D. Jacobson,  
 I. Kaliman,  J. Kussmann,  A. W. Lange,  Ka Un Lao,  D. S. Levine,  Jie Liu,  
 S. C. McKenzie,  A. F. Morrison,  K. Nanda,  F. Plasser,  D. R. Rehn,  
 M. L. Vidal,  Zhi-Qiang You,  Ying Zhu,  B. Alam,  B. Albrecht,  
 A. Aldossary,  E. Alguire,  J. H. Andersen,  D. Barton,  K. Begam,  A. Behn,  
 Y. A. Bernard,  E. J. Berquist,  H. Burton,  A. Carreras,  K. Carter-Fenk,  
 R. Chakraborty,  A. D. Chien,  K. D. Closser,  V. Cofer-Shabica,  
 S. Dasgupta,  Jia Deng,  M. de Wergifosse,  M. Diedenhofen,  Hainam Do,  
 S. Ehlert,  Po-Tung Fang,  S. Fatehi,  Qingguo Feng,  T. Friedhoff,  
 J. Gayvert,  Qinghui Ge,  G. Gidofalvi,  M. Goldey,  J. Gomes,  
 C. Gonzalez-Espinoza,  S. Gulania,  A. Gunina,  M. W. D. Hanson-Heine,  
 P. H. P. Harbach,  A. W. Hauser,  M. F. Herbst,  M. Hernandez Vera,  
 M. Hodecker,  Z. C. Holden,  S. Houck,  Xunkun Huang,  Kerwin Hui,  
 B. C. Huynh,  M. Ivanov,  Hyunjun Ji,  Hanjie Jiang,  B. Kaduk,  S. Kaehler,  
 K. Khistyaev,  Jaehoon Kim,  P. Klunzinger,  Z. Koczor-Benda,  
 Joong Hoon Koh,  D. Kosenkov,  L. Koulias,  T. Kowalczyk,  C. M. Krauter,  
 K. Kue,  A. Kunitsa,  T. Kus,  A. Landau,  K. V. Lawler,  D. Lefrancois,  
 S. Lehtola,  Rain Li,  Yi-Pei Li,  Jiashu Liang,  M. Liebenthal,  
 Hung-Hsuan Lin,  You-Sheng Lin,  Fenglai Liu,  Kuan-Yu Liu,  
 M. Loipersberger,  A. Luenser,  A. Manjanath,  P. Manohar,  E. Mansoor,  
 S. F. Manzer,  Shan-Ping Mao,  A. V. Marenich,  T. Markovich,  S. Mason,  
 S. A. Maurer,  P. F. McLaughlin,  M. F. S. J. Menger,  J.-M. Mewes,  
 S. A. Mewes,  P. Morgante,  J. W. Mullinax,  K. J. Oosterbaan,  G. Paran,  
 Alexander C. Paul,  Suranjan K. Paul,  F. Pavosevic,  Zheng Pei,  S. Prager,  
 E. I. Proynov,  E. Ramos,  B. Rana,  A. E. Rask,  A. Rettig,  R. M. Richard,  
 F. Rob,  E. Rossomme,  T. Scheele,  M. Scheurer,  M. Schneider,  
 N. Sergueev,  S. M. Sharada,  W. Skomorowski,  D. W. Small,  C. J. Stein,  
 Yu-Chuan Su,  E. J. Sundstrom,  Zhen Tao,  J. Thirman,  T. Tsuchimochi,  
 N. M. Tubman,  S. P. Veccham,  O. Vydrov,  J. Wenzel,  J. Witte,  A. Yamada,  
 Kun Yao,  S. Yeganeh,  S. R. Yost,  A. Zech,  Igor Ying Zhang,  Xing Zhang,  
 Yu Zhang,  D. Zuev,  A. Aspuru-Guzik,  A. T. Bell,  N. A. Besley,  
 K. B. Bravaya,  B. R. Brooks,  D. Casanova,  Jeng-Da Chai,  S. Coriani,  
 C. J. Cramer,  A. E. DePrince, III,  R. A. DiStasio Jr.,  A. Dreuw,  
 B. D. Dunietz,  T. R. Furlani,  W. A. Goddard III,  S. Grimme,  
 S. Hammes-Schiffer,  T. Head-Gordon,  W. J. Hehre,  Chao-Ping Hsu,  
 T.-C. Jagau,  Yousung Jung,  A. Klamt,  Jing Kong,  D. S. Lambrecht,  
 WanZhen Liang,  N. J. Mayhall,  C. W. McCurdy,  J. B. Neaton,  
 C. Ochsenfeld,  J. A. Parkhill,  R. Peverati,  V. A. Rassolov,  Yihan Shao,  
 L. V. Slipchenko,  T. Stauch,  R. P. Steele,  J. E. Subotnik,  
 A. J. W. Thom,  A. Tkatchenko,  D. G. Truhlar,  T. Van Voorhis,  
 T. A. Wesolowski,  K. B. Whaley,  H. L. Woodcock III,  P. M. Zimmerman,  
 S. Faraji,  P. M. W. Gill,  M. Head-Gordon,  J. M. Herbert,  A. I. Krylov

 Additional authors for Version 5.4.1: 
 S. Kotaru,  Shaozhi Li,  Xiangyuan Li,  F. Matz,  A. Molle,  Haisheng Ren,  
 Yingli Su,  Hung-Yi Tsai,  C. Utku,  Fang Wang

 Contributors to earlier versions of Q-Chem not listed above: 
 R. D. Adamson,  B. Austin,  R. Baer,  J. Baker,  G. J. O. Beran,  
 K. Brandhorst,  S. T. Brown,  E. F. C. Byrd,  A. K. Chakraborty,  
 G. K. L. Chan,  Chun-Min Chang,  Yunqing Chen,  C.-L. Cheng,  
 Siu Hung Chien,  D. M. Chipman,  D. L. Crittenden,  H. Dachsel,  
 R. J. Doerksen,  A. D. Dutoi,  R. G. Edgar,  J. Fosso-Tande,  
 L. Fusti-Molnar,  D. Ghosh,  A. Ghysels,  A. Golubeva-Zadorozhnaya,  
 J. Gonthier,  M. S. Gordon,  S. R. Gwaltney,  G. Hawkins,  J. E. Herr,  
 A. Heyden,  S. Hirata,  E. G. Hohenstein,  G. Kedziora,  F. J. Keil,  
 C. Kelley,  Jihan Kim,  R. A. King,  R. Z. Khaliullin,  P. P. Korambath,  
 W. Kurlancheek,  A. Laurent,  A. M. Lee,  M. S. Lee,  S. V. Levchenko,  
 Ching Yeh Lin,  D. Liotard,  E. Livshits,  R. C. Lochan,  I. Lotan,  
 L. A. Martinez-Martinez,  P. E. Maslen,  N. Nair,  D. P. O'Neill,  
 D. Neuhauser,  E. Neuscamman,  C. M. Oana,  R. Olivares-Amaya,  R. Olson,  
 T. M. Perrine,  B. Peters,  P. A. Pieniazek,  A. Prociuk,  Y. M. Rhee,  
 J. Ritchie,  M. A. Rohrdanz,  E. Rosta,  N. J. Russ,  H. F. Schaefer III,  
 M. W. Schmidt,  N. E. Schultz,  S. Sharma,  N. Shenvi,  C. D. Sherrill,  
 A. C. Simmonett,  A. Sodt,  T. Stein,  D. Stuck,  K. S. Thanthiriwatte,  
 V. Vanovschi,  L. Vogt,  Tao Wang,  A. Warshel,  M. A. Watson,  
 C. F. Williams,  Q. Wu,  X. Xu,  Jun Yang,  W. Zhang,  Yan Zhao

 Please cite Q-Chem as follows:
 Y. Shao et al., Mol. Phys. 113, 184-215 (2015)
 DOI: 10.1080/00268976.2014.952696

 Q-Chem 5.4.1 for Intel X86 EM64T Linux

 Parts of Q-Chem use Armadillo 9.800.1 (Horizon Scraper).
 http://arma.sourceforge.net/

 Q-Chem begins on Thu May 26 10:29:07 2022  

 Host: gadi-cpu-clx-0360.gadi.nci.org.au
0

     Scratch files written to /jobfs/41312669.gadi-pbs/qchem1639394//
 Processing $rem in /apps/qchem/5.4.1/config/preferences:
 Processing $rem in /home/561/yj5695/.qchemrc:
 Symmetry turned off for PCM/SM12/SMD calculation
 Method-specific promolecule density matrix will be built for SM12 calculation

 Checking the input file for inconsistencies... 	...done.

--------------------------------------------------------------
User input:
--------------------------------------------------------------
$molecule
-1  1
C -1.3664153165  0.7130774701 -0.9011639358
C -2.5491458926  0.9569773045 -1.5951758928
H -3.4806787331  1.0745040809 -1.0490657955
C -2.5389499441  1.0521574127 -2.9833862911
H -3.4617687789  1.2474400234 -3.5237718571
C -1.3425738055  0.8962443673 -3.6992594089
N -1.3171383614  1.0503059446 -5.0805279894
C -0.1548854234  0.6458868183 -2.9882303759
H  0.7768675591  0.5253606401 -3.5351646078
C -0.168503753  0.5546837903 -1.6036515604
H  0.7577663659  0.3618345542 -1.0688315752
S -1.3773623031  0.5383260296  0.8834961068
O -1.2077831188 -0.9236342012  1.1427914631
O -0.189069204  1.3383022733  1.3278144815
N -2.7491254716  1.000942873  1.4690350808
H -2.8053237724  2.0194395862  1.3869293798
H -2.2028919326  0.867666788 -5.5413979545
H -0.5491921142  0.5753172447 -5.5440622677
$end

$rem
jobtype sp
exchange M062X
basis 6-31+G*
SMX_GAS_PHASE = TRUE
solvent_method sm12
$end

$smx
solvent water
charges mk
$end
--------------------------------------------------------------
 ----------------------------------------------------------------
             Standard Nuclear Orientation (Angstroms)
    I     Atom           X                Y                Z
 ----------------------------------------------------------------
    1      C      -1.3664153165     0.7130774701    -0.9011639358
    2      C      -2.5491458926     0.9569773045    -1.5951758928
    3      H      -3.4806787331     1.0745040809    -1.0490657955
    4      C      -2.5389499441     1.0521574127    -2.9833862911
    5      H      -3.4617687789     1.2474400234    -3.5237718571
    6      C      -1.3425738055     0.8962443673    -3.6992594089
    7      N      -1.3171383614     1.0503059446    -5.0805279894
    8      C      -0.1548854234     0.6458868183    -2.9882303759
    9      H       0.7768675591     0.5253606401    -3.5351646078
   10      C      -0.1685037530     0.5546837903    -1.6036515604
   11      H       0.7577663659     0.3618345542    -1.0688315752
   12      S      -1.3773623031     0.5383260296     0.8834961068
   13      O      -1.2077831188    -0.9236342012     1.1427914631
   14      O      -0.1890692040     1.3383022733     1.3278144815
   15      N      -2.7491254716     1.0009428730     1.4690350808
   16      H      -2.8053237724     2.0194395862     1.3869293798
   17      H      -2.2028919326     0.8676667880    -5.5413979545
   18      H      -0.5491921142     0.5753172447    -5.5440622677
 ----------------------------------------------------------------
 Nuclear Repulsion Energy =         709.45991192 hartrees
 There are       45 alpha and       45 beta electrons
 Requested basis set is 6-31+G(d)
 There are 70 shells and 227 basis functions

 Total QAlloc Memory Limit   2000 MB
 Mega-Array Size       188 MB
 MEM_STATIC part       192 MB
 A cutoff of  1.0D-08 yielded   2011 shell pairs
 There are     22435 function pairs
 Smallest overlap matrix eigenvalue = 2.79E-06

 Q-Chem warning in module stvman/mkSTV.C, line 323:

 Overlap eigenvalue is smaller than square root of threshold
 Use THRESH >= 12 to get rid of this warning


 Scale SEOQF with 1.000000e-01/1.000000e-01/1.000000e-02

 Standard Electronic Orientation quadrupole field applied
 Nucleus-field energy     =     0.0000000081 hartrees
 ================ Generating on-the-fly Promolecule Density  ================
Attempting to make child job directory: /jobfs/41312669.gadi-pbs/qchem1639394//Frg1/
Attempting to make child job directory: /jobfs/41312669.gadi-pbs/qchem1639394//Frg2/
Attempting to make child job directory: /jobfs/41312669.gadi-pbs/qchem1639394//Frg3/
Attempting to make child job directory: /jobfs/41312669.gadi-pbs/qchem1639394//Frg4/
Attempting to make child job directory: /jobfs/41312669.gadi-pbs/qchem1639394//Frg5/
Creating input file /jobfs/41312669.gadi-pbs/qchem1639394/Frg1.input
using default PutDataFrgm: nothing
calling putenv with: QCSCRATCH=/jobfs/41312669.gadi-pbs/qchem1639394/ 
Spawning Job For Fragment 0
Done Job For Fragment 0
calling putenv with: QCSCRATCH=/jobfs/41312669.gadi-pbs 
calling putenv with: QCTHREADS=16 
Creating input file /jobfs/41312669.gadi-pbs/qchem1639394/Frg2.input
using default PutDataFrgm: nothing
calling putenv with: QCSCRATCH=/jobfs/41312669.gadi-pbs/qchem1639394/ 
Spawning Job For Fragment 1
Done Job For Fragment 1
calling putenv with: QCSCRATCH=/jobfs/41312669.gadi-pbs 
calling putenv with: QCTHREADS=16 
Creating input file /jobfs/41312669.gadi-pbs/qchem1639394/Frg3.input
using default PutDataFrgm: nothing
calling putenv with: QCSCRATCH=/jobfs/41312669.gadi-pbs/qchem1639394/ 
Spawning Job For Fragment 2
Done Job For Fragment 2
calling putenv with: QCSCRATCH=/jobfs/41312669.gadi-pbs 
calling putenv with: QCTHREADS=16 
Creating input file /jobfs/41312669.gadi-pbs/qchem1639394/Frg4.input
using default PutDataFrgm: nothing
calling putenv with: QCSCRATCH=/jobfs/41312669.gadi-pbs/qchem1639394/ 
Spawning Job For Fragment 3
Done Job For Fragment 3
calling putenv with: QCSCRATCH=/jobfs/41312669.gadi-pbs 
calling putenv with: QCTHREADS=16 
Creating input file /jobfs/41312669.gadi-pbs/qchem1639394/Frg5.input
using default PutDataFrgm: nothing
calling putenv with: QCSCRATCH=/jobfs/41312669.gadi-pbs/qchem1639394/ 
Spawning Job For Fragment 4
Done Job For Fragment 4
calling putenv with: QCSCRATCH=/jobfs/41312669.gadi-pbs 
calling putenv with: QCTHREADS=16 
 Time for running child jobs:  CPU 1.71 s  wall 2.30 s
 ============= Method Specific Promolecule Density Constructed =============
 Guess from superposition of atomic densities
 Warning:  Energy on first SCF cycle will be non-variational
 SAD guess density has 89.000000 electrons

 -----------------------------------------------------------------------
  General SCF calculation program by
  Eric Jon Sundstrom, Paul Horn, Yuezhi Mao, Dmitri Zuev, Alec White,
  David Stuck, Shaama M.S., Shane Yost, Joonho Lee, David Small,
  Daniel Levine, Susi Lehtola, Hugh Burton, Evgeny Epifanovsky,
  Bang C. Huynh
 -----------------------------------------------------------------------
 Exchange:     0.5400 Hartree-Fock + 1.0000 M06-2X
 Correlation:  1.0000 M06-2X
 Using SG-3 standard quadrature grid
 using 16 threads for integral computing
 -------------------------------------------------------
 OpenMP Integral computing Module                
 Release: version 1.0, May 2013, Q-Chem Inc. Pittsburgh 
 -------------------------------------------------------
 A restricted SCF calculation will be
 performed using DIIS
 SCF converges when DIIS error is below 1.0e-05
 ---------------------------------------
  Cycle       Energy         DIIS error
 ---------------------------------------
    1    -894.0436214847      5.08e-02  
    2    -890.4519788868      7.04e-03  
    3    -890.3736609837      8.61e-03  
    4    -890.7290835995      1.03e-03  
    5    -890.7345304227      4.41e-04  
    6    -890.7356627790      1.24e-04  
    7    -890.7357597625      2.77e-05  
    8    -890.7357658711      8.25e-06  Convergence criterion met
 ---------------------------------------
 SCF time:   CPU 69.48s  wall 5.00s 
 SCF   energy in the final basis set =     -890.7357658711
 Total energy in the final basis set =     -890.7357658711
 Exchange:     0.5400 Hartree-Fock + 1.0000 M06-2X
 Correlation:  1.0000 M06-2X
 Using SG-3 standard quadrature grid
 
 SM12 calculation using Merz-Singh-Kollman charges
 Citation of the SM12 model:
 Marenich, A.V.; Cramer, C.J.; Truhlar, D.G.
 J. Chem. Theory Comput. 2013, 9, 609-612.
 iSolventCode=           1
 Solvent: water                                                           
 
  Building new vdw surfaces
         Merz-Kollman ESP Net Atomic Charges

     Atom                 Charge (a.u.)
  ----------------------------------------
      1 C                    -0.186863
      2 C                    -0.025953
      3 H                     0.114630
      4 C                    -0.348239
      5 H                     0.160544
      6 C                     0.400535
      7 N                    -0.914352
      8 C                    -0.288216
      9 H                     0.149054
     10 C                    -0.108835
     11 H                     0.161487
     12 S                     1.236459
     13 O                    -0.673121
     14 O                    -0.723051
     15 N                    -1.015138
     16 H                     0.342570
     17 H                     0.360440
     18 H                     0.358051
  ----------------------------------------
  Sum of atomic charges =    -1.000000

  Related Dipole Moment =     9.9986 (X  6.2650 Y -1.9121 Z -7.5542)


 Charges (in A.U.) from Merz-Kollman fitting 
 -----------------------------------------------
 Center     Atomic                  MZ       
 Number     Number                  Charge
 -----------------------------------------------
    1          6                   -0.186863
    2          6                   -0.025953
    3          1                    0.114630
    4          6                   -0.348239
    5          1                    0.160544
    6          6                    0.400535
    7          7                   -0.914352
    8          6                   -0.288216
    9          1                    0.149054
   10          6                   -0.108835
   11          1                    0.161487
   12         16                    1.236459
   13          8                   -0.673121
   14          8                   -0.723051
   15          7                   -1.015138
   16          1                    0.342570
   17          1                    0.360440
   18          1                    0.358051
 -----------------------------------------------
 A restricted SCF calculation will be
 performed using Roothaan-Hall, DIIS
 SCF converges when DIIS error is below 1.0e-05
 ---------------------------------------
  Cycle       Energy         DIIS error
 ---------------------------------------
         Merz-Kollman ESP Net Atomic Charges

     Atom                 Charge (a.u.)
  ----------------------------------------
      1 C                    -0.220982
      2 C                    -0.065958
      3 H                     0.131842
      4 C                    -0.327772
      5 H                     0.185512
      6 C                     0.434662
      7 N                    -0.890016
      8 C                    -0.269481
      9 H                     0.176026
     10 C                    -0.160659
     11 H                     0.174779
     12 S                     1.259174
     13 O                    -0.730675
     14 O                    -0.761478
     15 N                    -1.055665
     16 H                     0.368705
     17 H                     0.377351
     18 H                     0.374634
  ----------------------------------------
  Sum of atomic charges =    -1.000000

  Related Dipole Moment =    12.5773 (X  6.0080 Y -1.3481 Z -10.9670)


 Charges (in A.U.) from Merz-Kollman fitting 
 -----------------------------------------------
 Center     Atomic                  MZ       
 Number     Number                  Charge
 -----------------------------------------------
    1          6                   -0.220982
    2          6                   -0.065958
    3          1                    0.131842
    4          6                   -0.327772
    5          1                    0.185512
    6          6                    0.434662
    7          7                   -0.890016
    8          6                   -0.269481
    9          1                    0.176026
   10          6                   -0.160659
   11          1                    0.174779
   12         16                    1.259174
   13          8                   -0.730675
   14          8                   -0.761478
   15          7                   -1.055665
   16          1                    0.368705
   17          1                    0.377351
   18          1                    0.374634
 -----------------------------------------------
    1    -890.7357658580      7.41e-04  Roothaan Step
 ---------------------------------------
  Cycle       Energy         DIIS error
 ---------------------------------------
         Merz-Kollman ESP Net Atomic Charges

     Atom                 Charge (a.u.)
  ----------------------------------------
      1 C                    -0.171033
      2 C                    -0.048761
      3 H                     0.127354
      4 C                    -0.372764
      5 H                     0.199730
      6 C                     0.415624
      7 N                    -0.895237
      8 C                    -0.314250
      9 H                     0.189155
     10 C                    -0.127062
     11 H                     0.167858
     12 S                     1.299656
     13 O                    -0.737742
     14 O                    -0.784940
     15 N                    -1.081738
     16 H                     0.359998
     17 H                     0.388544
     18 H                     0.385608
  ----------------------------------------
  Sum of atomic charges =    -1.000000

  Related Dipole Moment =    12.7628 (X  6.1514 Y -1.5475 Z -11.0749)


 Charges (in A.U.) from Merz-Kollman fitting 
 -----------------------------------------------
 Center     Atomic                  MZ       
 Number     Number                  Charge
 -----------------------------------------------
    1          6                   -0.171033
    2          6                   -0.048761
    3          1                    0.127354
    4          6                   -0.372764
    5          1                    0.199730
    6          6                    0.415624
    7          7                   -0.895237
    8          6                   -0.314250
    9          1                    0.189155
   10          6                   -0.127062
   11          1                    0.167858
   12         16                    1.299656
   13          8                   -0.737742
   14          8                   -0.784940
   15          7                   -1.081738
   16          1                    0.359998
   17          1                    0.388544
   18          1                    0.385608
 -----------------------------------------------
    1    -890.7237330282      4.59e-04  
         Merz-Kollman ESP Net Atomic Charges

     Atom                 Charge (a.u.)
  ----------------------------------------
      1 C                    -0.214780
      2 C                    -0.052647
      3 H                     0.129237
      4 C                    -0.355192
      5 H                     0.196508
      6 C                     0.436424
      7 N                    -0.882238
      8 C                    -0.296605
      9 H                     0.186660
     10 C                    -0.141511
     11 H                     0.171012
     12 S                     1.303813
     13 O                    -0.748030
     14 O                    -0.783261
     15 N                    -1.077684
     16 H                     0.364046
     17 H                     0.383556
     18 H                     0.380691
  ----------------------------------------
  Sum of atomic charges =    -1.000000

  Related Dipole Moment =    13.1396 (X  6.0666 Y -1.3739 Z -11.5740)


 Charges (in A.U.) from Merz-Kollman fitting 
 -----------------------------------------------
 Center     Atomic                  MZ       
 Number     Number                  Charge
 -----------------------------------------------
    1          6                   -0.214780
    2          6                   -0.052647
    3          1                    0.129237
    4          6                   -0.355192
    5          1                    0.196508
    6          6                    0.436424
    7          7                   -0.882238
    8          6                   -0.296605
    9          1                    0.186660
   10          6                   -0.141511
   11          1                    0.171012
   12         16                    1.303813
   13          8                   -0.748030
   14          8                   -0.783261
   15          7                   -1.077684
   16          1                    0.364046
   17          1                    0.383556
   18          1                    0.380691
 -----------------------------------------------
    2    -890.7230429850      4.45e-04  
         Merz-Kollman ESP Net Atomic Charges

     Atom                 Charge (a.u.)
  ----------------------------------------
      1 C                    -0.211041
      2 C                    -0.049651
      3 H                     0.129280
      4 C                    -0.360886
      5 H                     0.198824
      6 C                     0.434618
      7 N                    -0.880558
      8 C                    -0.302331
      9 H                     0.188908
     10 C                    -0.136120
     11 H                     0.170312
     12 S                     1.304657
     13 O                    -0.747911
     14 O                    -0.786883
     15 N                    -1.084535
     16 H                     0.365196
     17 H                     0.385505
     18 H                     0.382616
  ----------------------------------------
  Sum of atomic charges =    -1.000000

  Related Dipole Moment =    13.2947 (X  6.0886 Y -1.3902 Z -11.7365)


 Charges (in A.U.) from Merz-Kollman fitting 
 -----------------------------------------------
 Center     Atomic                  MZ       
 Number     Number                  Charge
 -----------------------------------------------
    1          6                   -0.211041
    2          6                   -0.049651
    3          1                    0.129280
    4          6                   -0.360886
    5          1                    0.198824
    6          6                    0.434618
    7          7                   -0.880558
    8          6                   -0.302331
    9          1                    0.188908
   10          6                   -0.136120
   11          1                    0.170312
   12         16                    1.304657
   13          8                   -0.747911
   14          8                   -0.786883
   15          7                   -1.084535
   16          1                    0.365196
   17          1                    0.385505
   18          1                    0.382616
 -----------------------------------------------
    3    -890.7209525069      8.40e-05  
         Merz-Kollman ESP Net Atomic Charges

     Atom                 Charge (a.u.)
  ----------------------------------------
      1 C                    -0.215486
      2 C                    -0.047593
      3 H                     0.128920
      4 C                    -0.362882
      5 H                     0.199331
      6 C                     0.437042
      7 N                    -0.879125
      8 C                    -0.304105
      9 H                     0.189409
     10 C                    -0.134796
     11 H                     0.170094
     12 S                     1.308871
     13 O                    -0.750368
     14 O                    -0.787512
     15 N                    -1.084140
     16 H                     0.364234
     17 H                     0.385522
     18 H                     0.382584
  ----------------------------------------
  Sum of atomic charges =    -1.000000

  Related Dipole Moment =    13.3342 (X  6.0857 Y -1.3780 Z -11.7842)


 Charges (in A.U.) from Merz-Kollman fitting 
 -----------------------------------------------
 Center     Atomic                  MZ       
 Number     Number                  Charge
 -----------------------------------------------
    1          6                   -0.215486
    2          6                   -0.047593
    3          1                    0.128920
    4          6                   -0.362882
    5          1                    0.199331
    6          6                    0.437042
    7          7                   -0.879125
    8          6                   -0.304105
    9          1                    0.189409
   10          6                   -0.134796
   11          1                    0.170094
   12         16                    1.308871
   13          8                   -0.750368
   14          8                   -0.787512
   15          7                   -1.084140
   16          1                    0.364234
   17          1                    0.385522
   18          1                    0.382584
 -----------------------------------------------
    4    -890.7198987685      4.75e-05  
    5    -890.7195713102      8.59e-06  Convergence criterion met
 ---------------------------------------
 SCF time:   CPU 68.39s  wall 4.00s 
(0)  E-EN(g) gas-phase elect-nuc energy                 -890.735765871 a.u.
(1)  E-EN(liq) elect-nuc energy of solute               -890.719571310 a.u.
(2)  G-P(liq) polarization free energy of solvation           -89.0470 kcal/mol
(3)  G-ENP(liq) elect-nuc-pol free energy of system     -890.861476766 a.u.
(4)  G-CDS(liq) cavity-dispersion-solvent structure 
     free energy                                                2.9142 kcal/mol
(5)  G-P-CDS(liq) = G-P(liq) + G-CDS(liq) = (2) + (4)         -86.1329 kcal/mol
(6)  G-S(liq) free energy of system = (1) + (5)         -890.856832747 a.u.
(7)  DeltaE-EN(liq) elect-nuc reorganization
     energy of solute molecule (7) = (1) - (0)                 10.1622 kcal/mol
(8)  DeltaG-ENP(liq) elect-nuc-pol free energy
     of solvation (8) = (3) - (0)                             -78.8848 kcal/mol
(9)  DeltaG-S(liq) free energy of  solvation
     (9) = (6) - (0)                                          -75.9706 kcal/mol
 SCF   energy in the final basis set =     -890.8568327471
 Total energy in the final basis set =     -890.8568327471
 
 --------------------------------------------------------------
 
                    Orbital Energies (a.u.)
 --------------------------------------------------------------
 
 Alpha MOs
 -- Occupied --
-90.1346 -19.6232 -19.6224 -14.7799 -14.7294 -10.6132 -10.5782 -10.5763
-10.5751 -10.5671 -10.5659  -8.4478  -6.3702  -6.3695  -6.3690  -1.2086
 -1.0922  -1.0446  -0.9772  -0.9587  -0.8631  -0.8468  -0.7313  -0.7172
 -0.6690  -0.6190  -0.5954  -0.5851  -0.5562  -0.5312  -0.5258  -0.5109
 -0.5021  -0.4812  -0.4690  -0.4231  -0.4192  -0.4112  -0.3946  -0.3717
 -0.3597  -0.3372  -0.3259  -0.3104  -0.2727
 -- Virtual --
 -0.0371  -0.0210  -0.0075  -0.0028  -0.0015   0.0036   0.0052   0.0072
  0.0205   0.0349   0.0409   0.0667   0.0703   0.0768   0.0926   0.0951
  0.0990   0.1037   0.1107   0.1225   0.1255   0.1319   0.1373   0.1390
  0.1470   0.1515   0.1595   0.1635   0.1718   0.1807   0.1900   0.1942
  0.2010   0.2042   0.2074   0.2088   0.2169   0.2213   0.2315   0.2352
  0.2430   0.2496   0.2513   0.2568   0.2688   0.2731   0.2823   0.2902
  0.2955   0.3014   0.3071   0.3239   0.3266   0.3328   0.3403   0.3583
  0.3610   0.3785   0.4024   0.4134   0.4138   0.4384   0.4743   0.5575
  0.5861   0.6232   0.6380   0.6764   0.6921   0.6992   0.7096   0.7108
  0.7334   0.7504   0.7543   0.7616   0.7770   0.8070   0.8254   0.8335
  0.8641   0.9055   0.9368   0.9480   0.9717   0.9792   0.9938   1.0021
  1.0041   1.0190   1.0529   1.0642   1.0706   1.0968   1.1025   1.1193
  1.1203   1.1289   1.1551   1.1732   1.1805   1.1939   1.2090   1.2168
  1.2219   1.2888   1.2981   1.3171   1.3364   1.3478   1.3578   1.3845
  1.4001   1.4065   1.4152   1.4190   1.4736   1.4890   1.4898   1.5176
  1.5426   1.5606   1.5765   1.6005   1.6306   1.7821   1.7956   1.8133
  1.8331   1.8592   1.8695   1.8845   1.8993   1.9104   1.9490   1.9524
  1.9728   1.9820   2.0225   2.0310   2.0470   2.0636   2.1218   2.1579
  2.1620   2.1787   2.1931   2.2203   2.2443   2.2541   2.2990   2.3088
  2.3276   2.3349   2.4307   2.4984   2.5059   2.5427   2.6139   2.6405
  2.6576   2.7042   2.7618   2.7685   2.7800   2.8534   2.9090   2.9211
  2.9537   3.1091   3.3864   4.0161   4.0431   4.0800   4.1104   4.2595
  4.2696   4.3297   4.3663   4.4138   4.4625   4.7264
 --------------------------------------------------------------
 
          Ground-State Mulliken Net Atomic Charges

     Atom                 Charge (a.u.)
  ----------------------------------------
      1 C                    -3.694987
      2 C                    -1.602824
      3 H                     0.260656
      4 C                     2.197691
      5 H                     0.276382
      6 C                     2.281300
      7 N                    -0.693753
      8 C                     1.958370
      9 H                     0.279360
     10 C                    -1.684592
     11 H                     0.237225
     12 S                     0.614488
     13 O                    -0.845398
     14 O                    -0.766947
     15 N                    -1.118145
     16 H                     0.416261
     17 H                     0.443015
     18 H                     0.441896
  ----------------------------------------
  Sum of atomic charges =    -1.000000

         Merz-Kollman ESP Net Atomic Charges

     Atom                 Charge (a.u.)
  ----------------------------------------
      1 C                    -0.215949
      2 C                    -0.047104
      3 H                     0.128820
      4 C                    -0.363471
      5 H                     0.199326
      6 C                     0.437769
      7 N                    -0.878784
      8 C                    -0.304599
      9 H                     0.189397
     10 C                    -0.134423
     11 H                     0.170009
     12 S                     1.311102
     13 O                    -0.750753
     14 O                    -0.788363
     15 N                    -1.085157
     16 H                     0.364177
     17 H                     0.385472
     18 H                     0.382530
  ----------------------------------------
  Sum of atomic charges =    -1.000000

  Related Dipole Moment =    13.3460 (X  6.0877 Y -1.3805 Z -11.7961)

 -----------------------------------------------------------------
                    Cartesian Multipole Moments
 -----------------------------------------------------------------
    Charge (ESU x 10^10)
                -4.8032
    Dipole Moment (Debye)
         X       6.1237      Y      -1.2974      Z     -11.8112
       Tot      13.3674
    Quadrupole Moments (Debye-Ang)
        XX     -85.8603     XY      -3.6711     YY     -86.3987
        XZ      17.4889     YZ       0.6572     ZZ     -65.6429
    Octopole Moments (Debye-Ang^2)
       XXX     341.0676    XXY     -42.9413    XYY     105.0025
       YYY    -168.0614    XXZ      13.3567    XYZ       2.4493
       YYZ      92.2577    XZZ      89.4405    YZZ     -73.5202
       ZZZ      70.2949
    Hexadecapole Moments (Debye-Ang^3)
      XXXX   -1436.4283   XXXY     214.7806   XXYY    -289.7523
      XYYY     231.8887   YYYY    -479.7791   XXXZ     -91.1181
      XXYZ      43.1794   XYYZ    -120.9620   YYYZ     294.8441
      XXZZ    -593.1991   XYZZ      73.4070   YYZZ    -649.5335
      XZZZ     -33.2211   YZZZ     298.1184   ZZZZ   -1957.0553
 -----------------------------------------------------------------
 Total job time:  11.48s(wall), 144.19s(cpu) 
 Thu May 26 10:29:18 2022

        *************************************************************
        *                                                           *
        *  Thank you very much for using Q-Chem.  Have a nice day.  *
        *                                                           *
        *************************************************************


