                  Welcome to Q-Chem
     A Quantum Leap Into The Future Of Chemistry


 Q-Chem 5.4 (devel), Q-Chem, Inc., Pleasanton, CA (2021)

 E. Epifanovsky,  A. T. B. Gilbert,  Xintian Feng,  Joonho Lee,  Yuezhi Mao,  
 N. Mardirossian,  P. Pokhilko,  A. White,  M. Wormit,  M. P. Coons,  
 A. L. Dempwolff,  Zhengting Gan,  D. Hait,  P. R. Horn,  L. D. Jacobson,  
 I. Kaliman,  J. Kussmann,  A. W. Lange,  Ka Un Lao,  D. S. Levine,  Jie Liu,  
 S. C. McKenzie,  A. F. Morrison,  K. Nanda,  F. Plasser,  D. R. Rehn,  
 M. L. Vidal,  Zhi-Qiang You,  Ying Zhu,  B. Alam,  B. Albrecht,  
 A. Aldossary,  E. Alguire,  J. H. Andersen,  D. Barton,  K. Begam,  A. Behn,  
 Y. A. Bernard,  E. J. Berquist,  H. Burton,  A. Carreras,  K. Carter-Fenk,  
 R. Chakraborty,  A. D. Chien,  K. D. Closser,  V. Cofer-Shabica,  
 S. Dasgupta,  Jia Deng,  M. de Wergifosse,  M. Diedenhofen,  Hainam Do,  
 S. Ehlert,  Po-Tung Fang,  S. Fatehi,  Qingguo Feng,  T. Friedhoff,  
 J. Gayvert,  Qinghui Ge,  G. Gidofalvi,  M. Goldey,  J. Gomes,  
 C. Gonzalez-Espinoza,  S. Gulania,  A. Gunina,  M. W. D. Hanson-Heine,  
 P. H. P. Harbach,  A. W. Hauser,  M. F. Herbst,  M. Hernandez Vera,  
 M. Hodecker,  Z. C. Holden,  S. Houck,  Xunkun Huang,  Kerwin Hui,  
 B. C. Huynh,  M. Ivanov,  Hyunjun Ji,  Hanjie Jiang,  B. Kaduk,  S. Kaehler,  
 K. Khistyaev,  Jaehoon Kim,  P. Klunzinger,  Z. Koczor-Benda,  
 Joong Hoon Koh,  D. Kosenkov,  L. Koulias,  T. Kowalczyk,  C. M. Krauter,  
 K. Kue,  A. Kunitsa,  T. Kus,  A. Landau,  K. V. Lawler,  D. Lefrancois,  
 S. Lehtola,  Rain Li,  Yi-Pei Li,  Jiashu Liang,  M. Liebenthal,  
 Hung-Hsuan Lin,  You-Sheng Lin,  Fenglai Liu,  Kuan-Yu Liu,  
 M. Loipersberger,  A. Luenser,  A. Manjanath,  P. Manohar,  E. Mansoor,  
 S. F. Manzer,  Shan-Ping Mao,  A. V. Marenich,  T. Markovich,  S. Mason,  
 S. A. Maurer,  P. F. McLaughlin,  M. F. S. J. Menger,  J.-M. Mewes,  
 S. A. Mewes,  P. Morgante,  J. W. Mullinax,  K. J. Oosterbaan,  G. Paran,  
 Alexander C. Paul,  Suranjan K. Paul,  F. Pavosevic,  Zheng Pei,  S. Prager,  
 E. I. Proynov,  E. Ramos,  B. Rana,  A. E. Rask,  A. Rettig,  R. M. Richard,  
 F. Rob,  E. Rossomme,  T. Scheele,  M. Scheurer,  M. Schneider,  
 N. Sergueev,  S. M. Sharada,  W. Skomorowski,  D. W. Small,  C. J. Stein,  
 Yu-Chuan Su,  E. J. Sundstrom,  Zhen Tao,  J. Thirman,  T. Tsuchimochi,  
 N. M. Tubman,  S. P. Veccham,  O. Vydrov,  J. Wenzel,  J. Witte,  A. Yamada,  
 Kun Yao,  S. Yeganeh,  S. R. Yost,  A. Zech,  Igor Ying Zhang,  Xing Zhang,  
 Yu Zhang,  D. Zuev,  A. Aspuru-Guzik,  A. T. Bell,  N. A. Besley,  
 K. B. Bravaya,  B. R. Brooks,  D. Casanova,  Jeng-Da Chai,  S. Coriani,  
 C. J. Cramer,  A. E. DePrince, III,  R. A. DiStasio Jr.,  A. Dreuw,  
 B. D. Dunietz,  T. R. Furlani,  W. A. Goddard III,  S. Grimme,  
 S. Hammes-Schiffer,  T. Head-Gordon,  W. J. Hehre,  Chao-Ping Hsu,  
 T.-C. Jagau,  Yousung Jung,  A. Klamt,  Jing Kong,  D. S. Lambrecht,  
 WanZhen Liang,  N. J. Mayhall,  C. W. McCurdy,  J. B. Neaton,  
 C. Ochsenfeld,  J. A. Parkhill,  R. Peverati,  V. A. Rassolov,  Yihan Shao,  
 L. V. Slipchenko,  T. Stauch,  R. P. Steele,  J. E. Subotnik,  
 A. J. W. Thom,  A. Tkatchenko,  D. G. Truhlar,  T. Van Voorhis,  
 T. A. Wesolowski,  K. B. Whaley,  H. L. Woodcock III,  P. M. Zimmerman,  
 S. Faraji,  P. M. W. Gill,  M. Head-Gordon,  J. M. Herbert,  A. I. Krylov

 Additional authors for Version 5.4.1: 
 S. Kotaru,  Shaozhi Li,  Xiangyuan Li,  F. Matz,  A. Molle,  Haisheng Ren,  
 Yingli Su,  Hung-Yi Tsai,  C. Utku,  Fang Wang

 Contributors to earlier versions of Q-Chem not listed above: 
 R. D. Adamson,  B. Austin,  R. Baer,  J. Baker,  G. J. O. Beran,  
 K. Brandhorst,  S. T. Brown,  E. F. C. Byrd,  A. K. Chakraborty,  
 G. K. L. Chan,  Chun-Min Chang,  Yunqing Chen,  C.-L. Cheng,  
 Siu Hung Chien,  D. M. Chipman,  D. L. Crittenden,  H. Dachsel,  
 R. J. Doerksen,  A. D. Dutoi,  R. G. Edgar,  J. Fosso-Tande,  
 L. Fusti-Molnar,  D. Ghosh,  A. Ghysels,  A. Golubeva-Zadorozhnaya,  
 J. Gonthier,  M. S. Gordon,  S. R. Gwaltney,  G. Hawkins,  J. E. Herr,  
 A. Heyden,  S. Hirata,  E. G. Hohenstein,  G. Kedziora,  F. J. Keil,  
 C. Kelley,  Jihan Kim,  R. A. King,  R. Z. Khaliullin,  P. P. Korambath,  
 W. Kurlancheek,  A. Laurent,  A. M. Lee,  M. S. Lee,  S. V. Levchenko,  
 Ching Yeh Lin,  D. Liotard,  E. Livshits,  R. C. Lochan,  I. Lotan,  
 L. A. Martinez-Martinez,  P. E. Maslen,  N. Nair,  D. P. O'Neill,  
 D. Neuhauser,  E. Neuscamman,  C. M. Oana,  R. Olivares-Amaya,  R. Olson,  
 T. M. Perrine,  B. Peters,  P. A. Pieniazek,  A. Prociuk,  Y. M. Rhee,  
 J. Ritchie,  M. A. Rohrdanz,  E. Rosta,  N. J. Russ,  H. F. Schaefer III,  
 M. W. Schmidt,  N. E. Schultz,  S. Sharma,  N. Shenvi,  C. D. Sherrill,  
 A. C. Simmonett,  A. Sodt,  T. Stein,  D. Stuck,  K. S. Thanthiriwatte,  
 V. Vanovschi,  L. Vogt,  Tao Wang,  A. Warshel,  M. A. Watson,  
 C. F. Williams,  Q. Wu,  X. Xu,  Jun Yang,  W. Zhang,  Yan Zhao

 Please cite Q-Chem as follows:
 Y. Shao et al., Mol. Phys. 113, 184-215 (2015)
 DOI: 10.1080/00268976.2014.952696

 Q-Chem 5.4.1 for Intel X86 EM64T Linux

 Parts of Q-Chem use Armadillo 9.800.1 (Horizon Scraper).
 http://arma.sourceforge.net/

 Q-Chem begins on Thu May 26 10:29:05 2022  

 Host: gadi-cpu-clx-1035.gadi.nci.org.au
0

     Scratch files written to /jobfs/41312671.gadi-pbs/qchem2068548//
 Processing $rem in /apps/qchem/5.4.1/config/preferences:
 Processing $rem in /home/561/yj5695/.qchemrc:
 Symmetry turned off for PCM/SM12/SMD calculation
 Method-specific promolecule density matrix will be built for SM12 calculation

 Checking the input file for inconsistencies... 	...done.

--------------------------------------------------------------
User input:
--------------------------------------------------------------
$molecule
-1  1
C -1.382798  0.667205 -0.834951
C -2.577321  0.782482 -1.542615
H -3.526286  0.783194 -1.01617
C -2.55129  0.906201 -2.931169
H -3.462395  1.005118 -3.512185
C -1.319278  0.903394 -3.564373
C -0.115779  0.786315 -2.884708
H  0.821559  0.793128 -3.4313
C -0.154954  0.664978 -1.498453
H  0.772521  0.574667 -0.940026
S -1.41135  0.41442  0.947957
O -0.289653  1.272379  1.440971
O -2.757034  0.877102  1.381544
N -1.264611 -1.108067  1.27384
H -0.29936 -1.380835  1.068012
F -1.286799  1.02389 -4.912364
$end

$rem
jobtype sp
exchange M062X
basis 6-31+G*
SMX_GAS_PHASE = TRUE
solvent_method sm12
$end

$smx
solvent water
charges mk
$end
--------------------------------------------------------------
 ----------------------------------------------------------------
             Standard Nuclear Orientation (Angstroms)
    I     Atom           X                Y                Z
 ----------------------------------------------------------------
    1      C      -1.3827980000     0.6672050000    -0.8349510000
    2      C      -2.5773210000     0.7824820000    -1.5426150000
    3      H      -3.5262860000     0.7831940000    -1.0161700000
    4      C      -2.5512900000     0.9062010000    -2.9311690000
    5      H      -3.4623950000     1.0051180000    -3.5121850000
    6      C      -1.3192780000     0.9033940000    -3.5643730000
    7      C      -0.1157790000     0.7863150000    -2.8847080000
    8      H       0.8215590000     0.7931280000    -3.4313000000
    9      C      -0.1549540000     0.6649780000    -1.4984530000
   10      H       0.7725210000     0.5746670000    -0.9400260000
   11      S      -1.4113500000     0.4144200000     0.9479570000
   12      O      -0.2896530000     1.2723790000     1.4409710000
   13      O      -2.7570340000     0.8771020000     1.3815440000
   14      N      -1.2646110000    -1.1080670000     1.2738400000
   15      H      -0.2993600000    -1.3808350000     1.0680120000
   16      F      -1.2867990000     1.0238900000    -4.9123640000
 ----------------------------------------------------------------
 Nuclear Repulsion Energy =         709.07679444 hartrees
 There are       45 alpha and       45 beta electrons
 Requested basis set is 6-31+G(d)
 There are 66 shells and 223 basis functions

 Total QAlloc Memory Limit   2000 MB
 Mega-Array Size       188 MB
 MEM_STATIC part       192 MB
 A cutoff of  1.0D-08 yielded   1827 shell pairs
 There are     21820 function pairs
 Smallest overlap matrix eigenvalue = 3.50E-06

 Q-Chem warning in module stvman/mkSTV.C, line 323:

 Overlap eigenvalue is smaller than square root of threshold
 Use THRESH >= 12 to get rid of this warning


 Scale SEOQF with 1.000000e-01/1.000000e-01/1.000000e-01

 Standard Electronic Orientation quadrupole field applied
 Nucleus-field energy     =    -0.0000000412 hartrees
 ================ Generating on-the-fly Promolecule Density  ================
Attempting to make child job directory: /jobfs/41312671.gadi-pbs/qchem2068548//Frg1/
Attempting to make child job directory: /jobfs/41312671.gadi-pbs/qchem2068548//Frg2/
Attempting to make child job directory: /jobfs/41312671.gadi-pbs/qchem2068548//Frg3/
Attempting to make child job directory: /jobfs/41312671.gadi-pbs/qchem2068548//Frg4/
Attempting to make child job directory: /jobfs/41312671.gadi-pbs/qchem2068548//Frg5/
Attempting to make child job directory: /jobfs/41312671.gadi-pbs/qchem2068548//Frg6/
Creating input file /jobfs/41312671.gadi-pbs/qchem2068548/Frg1.input
using default PutDataFrgm: nothing
calling putenv with: QCSCRATCH=/jobfs/41312671.gadi-pbs/qchem2068548/ 
Spawning Job For Fragment 0
Done Job For Fragment 0
calling putenv with: QCSCRATCH=/jobfs/41312671.gadi-pbs 
calling putenv with: QCTHREADS=16 
Creating input file /jobfs/41312671.gadi-pbs/qchem2068548/Frg2.input
using default PutDataFrgm: nothing
calling putenv with: QCSCRATCH=/jobfs/41312671.gadi-pbs/qchem2068548/ 
Spawning Job For Fragment 1
Done Job For Fragment 1
calling putenv with: QCSCRATCH=/jobfs/41312671.gadi-pbs 
calling putenv with: QCTHREADS=16 
Creating input file /jobfs/41312671.gadi-pbs/qchem2068548/Frg3.input
using default PutDataFrgm: nothing
calling putenv with: QCSCRATCH=/jobfs/41312671.gadi-pbs/qchem2068548/ 
Spawning Job For Fragment 2
Done Job For Fragment 2
calling putenv with: QCSCRATCH=/jobfs/41312671.gadi-pbs 
calling putenv with: QCTHREADS=16 
Creating input file /jobfs/41312671.gadi-pbs/qchem2068548/Frg4.input
using default PutDataFrgm: nothing
calling putenv with: QCSCRATCH=/jobfs/41312671.gadi-pbs/qchem2068548/ 
Spawning Job For Fragment 3
Done Job For Fragment 3
calling putenv with: QCSCRATCH=/jobfs/41312671.gadi-pbs 
calling putenv with: QCTHREADS=16 
Creating input file /jobfs/41312671.gadi-pbs/qchem2068548/Frg5.input
using default PutDataFrgm: nothing
calling putenv with: QCSCRATCH=/jobfs/41312671.gadi-pbs/qchem2068548/ 
Spawning Job For Fragment 4
Done Job For Fragment 4
calling putenv with: QCSCRATCH=/jobfs/41312671.gadi-pbs 
calling putenv with: QCTHREADS=16 
Creating input file /jobfs/41312671.gadi-pbs/qchem2068548/Frg6.input
using default PutDataFrgm: nothing
calling putenv with: QCSCRATCH=/jobfs/41312671.gadi-pbs/qchem2068548/ 
Spawning Job For Fragment 5
Done Job For Fragment 5
calling putenv with: QCSCRATCH=/jobfs/41312671.gadi-pbs 
calling putenv with: QCTHREADS=16 
 Time for running child jobs:  CPU 2.32 s  wall 2.55 s
 ============= Method Specific Promolecule Density Constructed =============
 Guess from superposition of atomic densities
 Warning:  Energy on first SCF cycle will be non-variational
 SAD guess density has 89.000000 electrons

 -----------------------------------------------------------------------
  General SCF calculation program by
  Eric Jon Sundstrom, Paul Horn, Yuezhi Mao, Dmitri Zuev, Alec White,
  David Stuck, Shaama M.S., Shane Yost, Joonho Lee, David Small,
  Daniel Levine, Susi Lehtola, Hugh Burton, Evgeny Epifanovsky,
  Bang C. Huynh
 -----------------------------------------------------------------------
 Exchange:     0.5400 Hartree-Fock + 1.0000 M06-2X
 Correlation:  1.0000 M06-2X
 Using SG-3 standard quadrature grid
 using 16 threads for integral computing
 -------------------------------------------------------
 OpenMP Integral computing Module                
 Release: version 1.0, May 2013, Q-Chem Inc. Pittsburgh 
 -------------------------------------------------------
 A restricted SCF calculation will be
 performed using DIIS
 SCF converges when DIIS error is below 1.0e-05
 ---------------------------------------
  Cycle       Energy         DIIS error
 ---------------------------------------
    1    -937.7661303299      5.03e-02  
    2    -934.3492715297      7.08e-03  
    3    -934.2484187975      8.83e-03  
    4    -934.6155772080      8.42e-04  
    5    -934.6185901244      4.58e-04  
    6    -934.6198213742      1.19e-04  
    7    -934.6199082014      2.42e-05  
    8    -934.6199128242      8.29e-06  Convergence criterion met
 ---------------------------------------
 SCF time:   CPU 64.31s  wall 4.00s 
 SCF   energy in the final basis set =     -934.6199128242
 Total energy in the final basis set =     -934.6199128242
 Exchange:     0.5400 Hartree-Fock + 1.0000 M06-2X
 Correlation:  1.0000 M06-2X
 Using SG-3 standard quadrature grid
 
 SM12 calculation using Merz-Singh-Kollman charges
 Citation of the SM12 model:
 Marenich, A.V.; Cramer, C.J.; Truhlar, D.G.
 J. Chem. Theory Comput. 2013, 9, 609-612.
 iSolventCode=           1
 Solvent: water                                                           
 
  Building new vdw surfaces
         Merz-Kollman ESP Net Atomic Charges

     Atom                 Charge (a.u.)
  ----------------------------------------
      1 C                    -0.268660
      2 C                     0.022044
      3 H                     0.143131
      4 C                    -0.397363
      5 H                     0.181198
      6 C                     0.479783
      7 C                    -0.412987
      8 H                     0.186794
      9 C                     0.024845
     10 H                     0.130998
     11 S                     1.182671
     12 O                    -0.695082
     13 O                    -0.637897
     14 N                    -0.990844
     15 H                     0.336849
     16 F                    -0.285478
  ----------------------------------------
  Sum of atomic charges =    -1.000000

  Related Dipole Moment =     9.6748 (X  8.0331 Y -2.3657 Z -4.8450)


 Charges (in A.U.) from Merz-Kollman fitting 
 -----------------------------------------------
 Center     Atomic                  MZ       
 Number     Number                  Charge
 -----------------------------------------------
    1          6                   -0.268660
    2          6                    0.022044
    3          1                    0.143131
    4          6                   -0.397363
    5          1                    0.181198
    6          6                    0.479783
    7          6                   -0.412987
    8          1                    0.186794
    9          6                    0.024845
   10          1                    0.130998
   11         16                    1.182671
   12          8                   -0.695082
   13          8                   -0.637897
   14          7                   -0.990844
   15          1                    0.336849
   16          9                   -0.285478
 -----------------------------------------------
 A restricted SCF calculation will be
 performed using Roothaan-Hall, DIIS
 SCF converges when DIIS error is below 1.0e-05
 ---------------------------------------
  Cycle       Energy         DIIS error
 ---------------------------------------
         Merz-Kollman ESP Net Atomic Charges

     Atom                 Charge (a.u.)
  ----------------------------------------
      1 C                    -0.296543
      2 C                    -0.005123
      3 H                     0.152888
      4 C                    -0.384491
      5 H                     0.208741
      6 C                     0.530126
      7 C                    -0.396017
      8 H                     0.214142
      9 C                     0.004100
     10 H                     0.147653
     11 S                     1.212804
     12 O                    -0.733058
     13 O                    -0.684540
     14 N                    -1.049463
     15 H                     0.364584
     16 F                    -0.285804
  ----------------------------------------
  Sum of atomic charges =    -1.000000

  Related Dipole Moment =    11.3840 (X  8.4147 Y -2.2071 Z -7.3428)


 Charges (in A.U.) from Merz-Kollman fitting 
 -----------------------------------------------
 Center     Atomic                  MZ       
 Number     Number                  Charge
 -----------------------------------------------
    1          6                   -0.296543
    2          6                   -0.005123
    3          1                    0.152888
    4          6                   -0.384491
    5          1                    0.208741
    6          6                    0.530126
    7          6                   -0.396017
    8          1                    0.214142
    9          6                    0.004100
   10          1                    0.147653
   11         16                    1.212804
   12          8                   -0.733058
   13          8                   -0.684540
   14          7                   -1.049463
   15          1                    0.364584
   16          9                   -0.285804
 -----------------------------------------------
    1    -934.6199123712      6.38e-04  Roothaan Step
 ---------------------------------------
  Cycle       Energy         DIIS error
 ---------------------------------------
         Merz-Kollman ESP Net Atomic Charges

     Atom                 Charge (a.u.)
  ----------------------------------------
      1 C                    -0.252235
      2 C                     0.008461
      3 H                     0.151054
      4 C                    -0.413849
      5 H                     0.222866
      6 C                     0.508273
      7 C                    -0.428550
      8 H                     0.229910
      9 C                     0.007436
     10 H                     0.147941
     11 S                     1.244473
     12 O                    -0.750311
     13 O                    -0.693319
     14 N                    -1.059381
     15 H                     0.353952
     16 F                    -0.276721
  ----------------------------------------
  Sum of atomic charges =    -1.000000

  Related Dipole Moment =    11.2111 (X  8.2706 Y -2.1382 Z -7.2605)


 Charges (in A.U.) from Merz-Kollman fitting 
 -----------------------------------------------
 Center     Atomic                  MZ       
 Number     Number                  Charge
 -----------------------------------------------
    1          6                   -0.252235
    2          6                    0.008461
    3          1                    0.151054
    4          6                   -0.413849
    5          1                    0.222866
    6          6                    0.508273
    7          6                   -0.428550
    8          1                    0.229910
    9          6                    0.007436
   10          1                    0.147941
   11         16                    1.244473
   12          8                   -0.750311
   13          8                   -0.693319
   14          7                   -1.059381
   15          1                    0.353952
   16          9                   -0.276721
 -----------------------------------------------
    1    -934.6115815158      3.91e-04  
         Merz-Kollman ESP Net Atomic Charges

     Atom                 Charge (a.u.)
  ----------------------------------------
      1 C                    -0.290234
      2 C                     0.005231
      3 H                     0.151888
      4 C                    -0.402853
      5 H                     0.220674
      6 C                     0.530792
      7 C                    -0.416038
      8 H                     0.227124
      9 C                     0.010773
     10 H                     0.148121
     11 S                     1.251654
     12 O                    -0.750349
     13 O                    -0.698551
     14 N                    -1.066567
     15 H                     0.359832
     16 F                    -0.281496
  ----------------------------------------
  Sum of atomic charges =    -1.000000

  Related Dipole Moment =    11.5361 (X  8.3734 Y -2.1184 Z -7.6473)


 Charges (in A.U.) from Merz-Kollman fitting 
 -----------------------------------------------
 Center     Atomic                  MZ       
 Number     Number                  Charge
 -----------------------------------------------
    1          6                   -0.290234
    2          6                    0.005231
    3          1                    0.151888
    4          6                   -0.402853
    5          1                    0.220674
    6          6                    0.530792
    7          6                   -0.416038
    8          1                    0.227124
    9          6                    0.010773
   10          1                    0.148121
   11         16                    1.251654
   12          8                   -0.750349
   13          8                   -0.698551
   14          7                   -1.066567
   15          1                    0.359832
   16          9                   -0.281496
 -----------------------------------------------
    2    -934.6115431895      3.62e-04  
         Merz-Kollman ESP Net Atomic Charges

     Atom                 Charge (a.u.)
  ----------------------------------------
      1 C                    -0.285556
      2 C                     0.007871
      3 H                     0.151627
      4 C                    -0.405910
      5 H                     0.222911
      6 C                     0.529207
      7 C                    -0.419805
      8 H                     0.229647
      9 C                     0.012328
     10 H                     0.148272
     11 S                     1.250725
     12 O                    -0.753258
     13 O                    -0.699031
     14 N                    -1.069360
     15 H                     0.360011
     16 F                    -0.279677
  ----------------------------------------
  Sum of atomic charges =    -1.000000

  Related Dipole Moment =    11.5836 (X  8.3580 Y -2.1021 Z -7.7398)


 Charges (in A.U.) from Merz-Kollman fitting 
 -----------------------------------------------
 Center     Atomic                  MZ       
 Number     Number                  Charge
 -----------------------------------------------
    1          6                   -0.285556
    2          6                    0.007871
    3          1                    0.151627
    4          6                   -0.405910
    5          1                    0.222911
    6          6                    0.529207
    7          6                   -0.419805
    8          1                    0.229647
    9          6                    0.012328
   10          1                    0.148272
   11         16                    1.250725
   12          8                   -0.753258
   13          8                   -0.699031
   14          7                   -1.069360
   15          1                    0.360011
   16          9                   -0.279677
 -----------------------------------------------
    3    -934.6101626505      5.67e-05  
         Merz-Kollman ESP Net Atomic Charges

     Atom                 Charge (a.u.)
  ----------------------------------------
      1 C                    -0.290038
      2 C                     0.008574
      3 H                     0.151658
      4 C                    -0.406808
      5 H                     0.223380
      6 C                     0.531847
      7 C                    -0.420535
      8 H                     0.230083
      9 C                     0.013636
     10 H                     0.148210
     11 S                     1.255423
     12 O                    -0.753573
     13 O                    -0.700607
     14 N                    -1.070643
     15 H                     0.359666
     16 F                    -0.280272
  ----------------------------------------
  Sum of atomic charges =    -1.000000

  Related Dipole Moment =    11.6028 (X  8.3674 Y -2.0940 Z -7.7607)


 Charges (in A.U.) from Merz-Kollman fitting 
 -----------------------------------------------
 Center     Atomic                  MZ       
 Number     Number                  Charge
 -----------------------------------------------
    1          6                   -0.290038
    2          6                    0.008574
    3          1                    0.151658
    4          6                   -0.406808
    5          1                    0.223380
    6          6                    0.531847
    7          6                   -0.420535
    8          1                    0.230083
    9          6                    0.013636
   10          1                    0.148210
   11         16                    1.255423
   12          8                   -0.753573
   13          8                   -0.700607
   14          7                   -1.070643
   15          1                    0.359666
   16          9                   -0.280272
 -----------------------------------------------
    4    -934.6095318238      3.22e-05  
    5    -934.6093929545      5.83e-06  Convergence criterion met
 ---------------------------------------
 SCF time:   CPU 62.69s  wall 4.00s 
(0)  E-EN(g) gas-phase elect-nuc energy                 -934.619912824 a.u.
(1)  E-EN(liq) elect-nuc energy of solute               -934.609392954 a.u.
(2)  G-P(liq) polarization free energy of solvation           -76.6269 kcal/mol
(3)  G-ENP(liq) elect-nuc-pol free energy of system     -934.731505724 a.u.
(4)  G-CDS(liq) cavity-dispersion-solvent structure 
     free energy                                                4.0314 kcal/mol
(5)  G-P-CDS(liq) = G-P(liq) + G-CDS(liq) = (2) + (4)         -72.5955 kcal/mol
(6)  G-S(liq) free energy of system = (1) + (5)         -934.725081254 a.u.
(7)  DeltaE-EN(liq) elect-nuc reorganization
     energy of solute molecule (7) = (1) - (0)                  6.6013 kcal/mol
(8)  DeltaG-ENP(liq) elect-nuc-pol free energy
     of solvation (8) = (3) - (0)                             -70.0256 kcal/mol
(9)  DeltaG-S(liq) free energy of  solvation
     (9) = (6) - (0)                                          -65.9942 kcal/mol
 SCF   energy in the final basis set =     -934.7250812539
 Total energy in the final basis set =     -934.7250812539
 
 --------------------------------------------------------------
 
                    Orbital Energies (a.u.)
 --------------------------------------------------------------
 
 Alpha MOs
 -- Occupied --
-90.1383 -25.2952 -19.6273 -19.6267 -14.7302 -10.6590 -10.5911 -10.5857
-10.5837 -10.5803 -10.5798  -8.4514  -6.3739  -6.3732  -6.3725  -1.3886
 -1.2145  -1.0997  -0.9942  -0.9721  -0.8770  -0.8749  -0.7469  -0.7313
 -0.6800  -0.6461  -0.6064  -0.5943  -0.5822  -0.5621  -0.5405  -0.5308
 -0.5193  -0.4984  -0.4904  -0.4610  -0.4314  -0.4256  -0.4012  -0.3832
 -0.3701  -0.3408  -0.3346  -0.3312  -0.2967
 -- Virtual --
 -0.0252  -0.0116  -0.0057  -0.0047  -0.0012   0.0050   0.0147   0.0170
  0.0297   0.0471   0.0523   0.0627   0.0706   0.0812   0.0889   0.0969
  0.1020   0.1121   0.1129   0.1238   0.1312   0.1361   0.1405   0.1458
  0.1485   0.1521   0.1622   0.1736   0.1769   0.1857   0.1902   0.1990
  0.2045   0.2140   0.2169   0.2236   0.2317   0.2436   0.2465   0.2502
  0.2652   0.2666   0.2730   0.2796   0.2852   0.2993   0.3068   0.3172
  0.3223   0.3305   0.3402   0.3500   0.3656   0.3707   0.3813   0.3936
  0.3995   0.4121   0.4220   0.4442   0.4733   0.5539   0.5796   0.6000
  0.6441   0.6672   0.6963   0.7006   0.7061   0.7169   0.7464   0.7541
  0.7555   0.7679   0.7728   0.8040   0.8215   0.8361   0.8923   0.9073
  0.9381   0.9620   0.9658   0.9851   1.0131   1.0306   1.0330   1.0493
  1.0666   1.0901   1.1013   1.1125   1.1208   1.1508   1.1811   1.1911
  1.2167   1.2330   1.2596   1.2774   1.3019   1.3344   1.3563   1.3612
  1.3661   1.3789   1.3884   1.3950   1.4159   1.4168   1.4831   1.4877
  1.4927   1.5273   1.5426   1.6110   1.6786   1.6963   1.6996   1.7497
  1.7889   1.8058   1.8152   1.8166   1.8211   1.8381   1.8668   1.8818
  1.8950   1.9043   1.9304   1.9409   1.9757   1.9849   1.9953   2.0293
  2.0460   2.0525   2.0729   2.1550   2.1639   2.1754   2.1946   2.2065
  2.2684   2.2706   2.2944   2.3060   2.3177   2.3326   2.3469   2.3999
  2.5466   2.5532   2.6241   2.6551   2.6771   2.6868   2.7268   2.7783
  2.8375   2.8731   2.9061   2.9545   3.1511   3.2326   3.4259   3.9761
  4.0922   4.2164   4.2337   4.2581   4.2889   4.3145   4.3990   4.4629
  4.7280   5.9524
 --------------------------------------------------------------
 
          Ground-State Mulliken Net Atomic Charges

     Atom                 Charge (a.u.)
  ----------------------------------------
      1 C                    -3.136990
      2 C                    -1.516876
      3 H                     0.262731
      4 C                     1.431112
      5 H                     0.306808
      6 C                     1.376932
      7 C                     1.568540
      8 H                     0.309626
      9 C                     0.220105
     10 H                     0.267013
     11 S                     0.469085
     12 O                    -0.764917
     13 O                    -0.886434
     14 N                    -0.969904
     15 H                     0.399109
     16 F                    -0.335940
  ----------------------------------------
  Sum of atomic charges =    -1.000000

         Merz-Kollman ESP Net Atomic Charges

     Atom                 Charge (a.u.)
  ----------------------------------------
      1 C                    -0.290387
      2 C                     0.008874
      3 H                     0.151633
      4 C                    -0.407055
      5 H                     0.223445
      6 C                     0.531982
      7 C                    -0.420840
      8 H                     0.230163
      9 C                     0.013940
     10 H                     0.148174
     11 S                     1.256921
     12 O                    -0.754244
     13 O                    -0.700816
     14 N                    -1.071162
     15 H                     0.359588
     16 F                    -0.280215
  ----------------------------------------
  Sum of atomic charges =    -1.000000

  Related Dipole Moment =    11.6028 (X  8.3641 Y -2.0927 Z -7.7645)

 -----------------------------------------------------------------
                    Cartesian Multipole Moments
 -----------------------------------------------------------------
    Charge (ESU x 10^10)
                -4.8032
    Dipole Moment (Debye)
         X       8.3729      Y      -2.0455      Z      -7.8150
       Tot      11.6346
    Quadrupole Moments (Debye-Ang)
        XX     -86.1287     XY      -0.6248     YY     -85.2043
        XZ      12.8896     YZ      -2.7014     ZZ     -95.5314
    Octopole Moments (Debye-Ang^2)
       XXX     325.2625    XXY     -42.6431    XYY     117.0347
       YYY    -137.3036    XXZ      10.4946    XYZ       1.6898
       YYZ      54.4797    XZZ     130.4748    YZZ     -56.6120
       ZZZ     226.5913
    Hexadecapole Moments (Debye-Ang^3)
      XXXX   -1314.4686   XXXY     185.7817   XXYY    -315.8563
      XYYY     183.0732   YYYY    -440.7576   XXXZ     -76.2663
      XXYZ      42.4415   XYYZ     -67.2371   YYYZ     234.9089
      XXZZ    -602.3811   XYZZ      70.2132   YYZZ    -503.0954
      XZZZ    -286.5831   YZZZ     288.3113   ZZZZ   -2740.0268
 -----------------------------------------------------------------
 Total job time:  11.04s(wall), 133.78s(cpu) 
 Thu May 26 10:29:16 2022

        *************************************************************
        *                                                           *
        *  Thank you very much for using Q-Chem.  Have a nice day.  *
        *                                                           *
        *************************************************************


