                  Welcome to Q-Chem
     A Quantum Leap Into The Future Of Chemistry


 Q-Chem 5.4 (devel), Q-Chem, Inc., Pleasanton, CA (2021)

 E. Epifanovsky,  A. T. B. Gilbert,  Xintian Feng,  Joonho Lee,  Yuezhi Mao,  
 N. Mardirossian,  P. Pokhilko,  A. White,  M. Wormit,  M. P. Coons,  
 A. L. Dempwolff,  Zhengting Gan,  D. Hait,  P. R. Horn,  L. D. Jacobson,  
 I. Kaliman,  J. Kussmann,  A. W. Lange,  Ka Un Lao,  D. S. Levine,  Jie Liu,  
 S. C. McKenzie,  A. F. Morrison,  K. Nanda,  F. Plasser,  D. R. Rehn,  
 M. L. Vidal,  Zhi-Qiang You,  Ying Zhu,  B. Alam,  B. Albrecht,  
 A. Aldossary,  E. Alguire,  J. H. Andersen,  D. Barton,  K. Begam,  A. Behn,  
 Y. A. Bernard,  E. J. Berquist,  H. Burton,  A. Carreras,  K. Carter-Fenk,  
 R. Chakraborty,  A. D. Chien,  K. D. Closser,  V. Cofer-Shabica,  
 S. Dasgupta,  Jia Deng,  M. de Wergifosse,  M. Diedenhofen,  Hainam Do,  
 S. Ehlert,  Po-Tung Fang,  S. Fatehi,  Qingguo Feng,  T. Friedhoff,  
 J. Gayvert,  Qinghui Ge,  G. Gidofalvi,  M. Goldey,  J. Gomes,  
 C. Gonzalez-Espinoza,  S. Gulania,  A. Gunina,  M. W. D. Hanson-Heine,  
 P. H. P. Harbach,  A. W. Hauser,  M. F. Herbst,  M. Hernandez Vera,  
 M. Hodecker,  Z. C. Holden,  S. Houck,  Xunkun Huang,  Kerwin Hui,  
 B. C. Huynh,  M. Ivanov,  Hyunjun Ji,  Hanjie Jiang,  B. Kaduk,  S. Kaehler,  
 K. Khistyaev,  Jaehoon Kim,  P. Klunzinger,  Z. Koczor-Benda,  
 Joong Hoon Koh,  D. Kosenkov,  L. Koulias,  T. Kowalczyk,  C. M. Krauter,  
 K. Kue,  A. Kunitsa,  T. Kus,  A. Landau,  K. V. Lawler,  D. Lefrancois,  
 S. Lehtola,  Rain Li,  Yi-Pei Li,  Jiashu Liang,  M. Liebenthal,  
 Hung-Hsuan Lin,  You-Sheng Lin,  Fenglai Liu,  Kuan-Yu Liu,  
 M. Loipersberger,  A. Luenser,  A. Manjanath,  P. Manohar,  E. Mansoor,  
 S. F. Manzer,  Shan-Ping Mao,  A. V. Marenich,  T. Markovich,  S. Mason,  
 S. A. Maurer,  P. F. McLaughlin,  M. F. S. J. Menger,  J.-M. Mewes,  
 S. A. Mewes,  P. Morgante,  J. W. Mullinax,  K. J. Oosterbaan,  G. Paran,  
 Alexander C. Paul,  Suranjan K. Paul,  F. Pavosevic,  Zheng Pei,  S. Prager,  
 E. I. Proynov,  E. Ramos,  B. Rana,  A. E. Rask,  A. Rettig,  R. M. Richard,  
 F. Rob,  E. Rossomme,  T. Scheele,  M. Scheurer,  M. Schneider,  
 N. Sergueev,  S. M. Sharada,  W. Skomorowski,  D. W. Small,  C. J. Stein,  
 Yu-Chuan Su,  E. J. Sundstrom,  Zhen Tao,  J. Thirman,  T. Tsuchimochi,  
 N. M. Tubman,  S. P. Veccham,  O. Vydrov,  J. Wenzel,  J. Witte,  A. Yamada,  
 Kun Yao,  S. Yeganeh,  S. R. Yost,  A. Zech,  Igor Ying Zhang,  Xing Zhang,  
 Yu Zhang,  D. Zuev,  A. Aspuru-Guzik,  A. T. Bell,  N. A. Besley,  
 K. B. Bravaya,  B. R. Brooks,  D. Casanova,  Jeng-Da Chai,  S. Coriani,  
 C. J. Cramer,  A. E. DePrince, III,  R. A. DiStasio Jr.,  A. Dreuw,  
 B. D. Dunietz,  T. R. Furlani,  W. A. Goddard III,  S. Grimme,  
 S. Hammes-Schiffer,  T. Head-Gordon,  W. J. Hehre,  Chao-Ping Hsu,  
 T.-C. Jagau,  Yousung Jung,  A. Klamt,  Jing Kong,  D. S. Lambrecht,  
 WanZhen Liang,  N. J. Mayhall,  C. W. McCurdy,  J. B. Neaton,  
 C. Ochsenfeld,  J. A. Parkhill,  R. Peverati,  V. A. Rassolov,  Yihan Shao,  
 L. V. Slipchenko,  T. Stauch,  R. P. Steele,  J. E. Subotnik,  
 A. J. W. Thom,  A. Tkatchenko,  D. G. Truhlar,  T. Van Voorhis,  
 T. A. Wesolowski,  K. B. Whaley,  H. L. Woodcock III,  P. M. Zimmerman,  
 S. Faraji,  P. M. W. Gill,  M. Head-Gordon,  J. M. Herbert,  A. I. Krylov

 Additional authors for Version 5.4.1: 
 S. Kotaru,  Shaozhi Li,  Xiangyuan Li,  F. Matz,  A. Molle,  Haisheng Ren,  
 Yingli Su,  Hung-Yi Tsai,  C. Utku,  Fang Wang

 Contributors to earlier versions of Q-Chem not listed above: 
 R. D. Adamson,  B. Austin,  R. Baer,  J. Baker,  G. J. O. Beran,  
 K. Brandhorst,  S. T. Brown,  E. F. C. Byrd,  A. K. Chakraborty,  
 G. K. L. Chan,  Chun-Min Chang,  Yunqing Chen,  C.-L. Cheng,  
 Siu Hung Chien,  D. M. Chipman,  D. L. Crittenden,  H. Dachsel,  
 R. J. Doerksen,  A. D. Dutoi,  R. G. Edgar,  J. Fosso-Tande,  
 L. Fusti-Molnar,  D. Ghosh,  A. Ghysels,  A. Golubeva-Zadorozhnaya,  
 J. Gonthier,  M. S. Gordon,  S. R. Gwaltney,  G. Hawkins,  J. E. Herr,  
 A. Heyden,  S. Hirata,  E. G. Hohenstein,  G. Kedziora,  F. J. Keil,  
 C. Kelley,  Jihan Kim,  R. A. King,  R. Z. Khaliullin,  P. P. Korambath,  
 W. Kurlancheek,  A. Laurent,  A. M. Lee,  M. S. Lee,  S. V. Levchenko,  
 Ching Yeh Lin,  D. Liotard,  E. Livshits,  R. C. Lochan,  I. Lotan,  
 L. A. Martinez-Martinez,  P. E. Maslen,  N. Nair,  D. P. O'Neill,  
 D. Neuhauser,  E. Neuscamman,  C. M. Oana,  R. Olivares-Amaya,  R. Olson,  
 T. M. Perrine,  B. Peters,  P. A. Pieniazek,  A. Prociuk,  Y. M. Rhee,  
 J. Ritchie,  M. A. Rohrdanz,  E. Rosta,  N. J. Russ,  H. F. Schaefer III,  
 M. W. Schmidt,  N. E. Schultz,  S. Sharma,  N. Shenvi,  C. D. Sherrill,  
 A. C. Simmonett,  A. Sodt,  T. Stein,  D. Stuck,  K. S. Thanthiriwatte,  
 V. Vanovschi,  L. Vogt,  Tao Wang,  A. Warshel,  M. A. Watson,  
 C. F. Williams,  Q. Wu,  X. Xu,  Jun Yang,  W. Zhang,  Yan Zhao

 Please cite Q-Chem as follows:
 Y. Shao et al., Mol. Phys. 113, 184-215 (2015)
 DOI: 10.1080/00268976.2014.952696

 Q-Chem 5.4.1 for Intel X86 EM64T Linux

 Parts of Q-Chem use Armadillo 9.800.1 (Horizon Scraper).
 http://arma.sourceforge.net/

 Q-Chem begins on Thu May 26 10:29:05 2022  

 Host: gadi-cpu-clx-1043.gadi.nci.org.au
0

     Scratch files written to /jobfs/41312672.gadi-pbs/qchem1622783//
 Processing $rem in /apps/qchem/5.4.1/config/preferences:
 Processing $rem in /home/561/yj5695/.qchemrc:
 Symmetry turned off for PCM/SM12/SMD calculation
 Method-specific promolecule density matrix will be built for SM12 calculation

 Checking the input file for inconsistencies... 	...done.

--------------------------------------------------------------
User input:
--------------------------------------------------------------
$molecule
-1  1
C -1.47356  0.608144 -0.82458
C -2.597396  0.877873 -1.602456
F -3.806659  1.000332 -1.024863
C -2.539301  1.03771 -2.980977
H -3.453825  1.247354 -3.525541
C -1.310182  0.927506 -3.622194
C -0.152491  0.660485 -2.891946
H  0.820993  0.568789 -3.361426
C -0.26989  0.510968 -1.523638
F  0.848558  0.246927 -0.81218
S -1.439087  0.368098  0.979728
O -0.602108  1.517592  1.42841
O -2.851987  0.445511  1.411397
N -0.868268 -1.042946  1.298646
H  0.142075 -1.02219  1.142911
H -1.251131  1.050639 -4.698512
$end

$rem
jobtype sp
exchange M062X
basis 6-31+G*
SMX_GAS_PHASE = TRUE
solvent_method sm12
$end

$smx
solvent water
charges mk
$end
--------------------------------------------------------------
 ----------------------------------------------------------------
             Standard Nuclear Orientation (Angstroms)
    I     Atom           X                Y                Z
 ----------------------------------------------------------------
    1      C      -1.4735600000     0.6081440000    -0.8245800000
    2      C      -2.5973960000     0.8778730000    -1.6024560000
    3      F      -3.8066590000     1.0003320000    -1.0248630000
    4      C      -2.5393010000     1.0377100000    -2.9809770000
    5      H      -3.4538250000     1.2473540000    -3.5255410000
    6      C      -1.3101820000     0.9275060000    -3.6221940000
    7      C      -0.1524910000     0.6604850000    -2.8919460000
    8      H       0.8209930000     0.5687890000    -3.3614260000
    9      C      -0.2698900000     0.5109680000    -1.5236380000
   10      F       0.8485580000     0.2469270000    -0.8121800000
   11      S      -1.4390870000     0.3680980000     0.9797280000
   12      O      -0.6021080000     1.5175920000     1.4284100000
   13      O      -2.8519870000     0.4455110000     1.4113970000
   14      N      -0.8682680000    -1.0429460000     1.2986460000
   15      H       0.1420750000    -1.0221900000     1.1429110000
   16      H      -1.2511310000     1.0506390000    -4.6985120000
 ----------------------------------------------------------------
 Nuclear Repulsion Energy =         854.64780659 hartrees
 There are       49 alpha and       49 beta electrons
 Requested basis set is 6-31+G(d)
 There are 69 shells and 240 basis functions

 Total QAlloc Memory Limit   2000 MB
 Mega-Array Size       188 MB
 MEM_STATIC part       192 MB
 A cutoff of  1.0D-08 yielded   1983 shell pairs
 There are     25719 function pairs
 Smallest overlap matrix eigenvalue = 2.37E-06

 Q-Chem warning in module stvman/mkSTV.C, line 323:

 Overlap eigenvalue is smaller than square root of threshold
 Use THRESH >= 12 to get rid of this warning


 Scale SEOQF with 1.000000e-01/1.000000e-01/1.000000e-01

 Standard Electronic Orientation quadrupole field applied
 Nucleus-field energy     =    -0.0000000186 hartrees
 ================ Generating on-the-fly Promolecule Density  ================
Attempting to make child job directory: /jobfs/41312672.gadi-pbs/qchem1622783//Frg1/
Attempting to make child job directory: /jobfs/41312672.gadi-pbs/qchem1622783//Frg2/
Attempting to make child job directory: /jobfs/41312672.gadi-pbs/qchem1622783//Frg3/
Attempting to make child job directory: /jobfs/41312672.gadi-pbs/qchem1622783//Frg4/
Attempting to make child job directory: /jobfs/41312672.gadi-pbs/qchem1622783//Frg5/
Attempting to make child job directory: /jobfs/41312672.gadi-pbs/qchem1622783//Frg6/
Creating input file /jobfs/41312672.gadi-pbs/qchem1622783/Frg1.input
using default PutDataFrgm: nothing
calling putenv with: QCSCRATCH=/jobfs/41312672.gadi-pbs/qchem1622783/ 
Spawning Job For Fragment 0
Done Job For Fragment 0
calling putenv with: QCSCRATCH=/jobfs/41312672.gadi-pbs 
calling putenv with: QCTHREADS=16 
Creating input file /jobfs/41312672.gadi-pbs/qchem1622783/Frg2.input
using default PutDataFrgm: nothing
calling putenv with: QCSCRATCH=/jobfs/41312672.gadi-pbs/qchem1622783/ 
Spawning Job For Fragment 1
Done Job For Fragment 1
calling putenv with: QCSCRATCH=/jobfs/41312672.gadi-pbs 
calling putenv with: QCTHREADS=16 
Creating input file /jobfs/41312672.gadi-pbs/qchem1622783/Frg3.input
using default PutDataFrgm: nothing
calling putenv with: QCSCRATCH=/jobfs/41312672.gadi-pbs/qchem1622783/ 
Spawning Job For Fragment 2
Done Job For Fragment 2
calling putenv with: QCSCRATCH=/jobfs/41312672.gadi-pbs 
calling putenv with: QCTHREADS=16 
Creating input file /jobfs/41312672.gadi-pbs/qchem1622783/Frg4.input
using default PutDataFrgm: nothing
calling putenv with: QCSCRATCH=/jobfs/41312672.gadi-pbs/qchem1622783/ 
Spawning Job For Fragment 3
Done Job For Fragment 3
calling putenv with: QCSCRATCH=/jobfs/41312672.gadi-pbs 
calling putenv with: QCTHREADS=16 
Creating input file /jobfs/41312672.gadi-pbs/qchem1622783/Frg5.input
using default PutDataFrgm: nothing
calling putenv with: QCSCRATCH=/jobfs/41312672.gadi-pbs/qchem1622783/ 
Spawning Job For Fragment 4
Done Job For Fragment 4
calling putenv with: QCSCRATCH=/jobfs/41312672.gadi-pbs 
calling putenv with: QCTHREADS=16 
Creating input file /jobfs/41312672.gadi-pbs/qchem1622783/Frg6.input
using default PutDataFrgm: nothing
calling putenv with: QCSCRATCH=/jobfs/41312672.gadi-pbs/qchem1622783/ 
Spawning Job For Fragment 5
Done Job For Fragment 5
calling putenv with: QCSCRATCH=/jobfs/41312672.gadi-pbs 
calling putenv with: QCTHREADS=16 
 Time for running child jobs:  CPU 2.36 s  wall 2.30 s
 ============= Method Specific Promolecule Density Constructed =============
 Guess from superposition of atomic densities
 Warning:  Energy on first SCF cycle will be non-variational
 SAD guess density has 97.000000 electrons

 -----------------------------------------------------------------------
  General SCF calculation program by
  Eric Jon Sundstrom, Paul Horn, Yuezhi Mao, Dmitri Zuev, Alec White,
  David Stuck, Shaama M.S., Shane Yost, Joonho Lee, David Small,
  Daniel Levine, Susi Lehtola, Hugh Burton, Evgeny Epifanovsky,
  Bang C. Huynh
 -----------------------------------------------------------------------
 Exchange:     0.5400 Hartree-Fock + 1.0000 M06-2X
 Correlation:  1.0000 M06-2X
 Using SG-3 standard quadrature grid
 using 16 threads for integral computing
 -------------------------------------------------------
 OpenMP Integral computing Module                
 Release: version 1.0, May 2013, Q-Chem Inc. Pittsburgh 
 -------------------------------------------------------
 A restricted SCF calculation will be
 performed using DIIS
 SCF converges when DIIS error is below 1.0e-05
 ---------------------------------------
  Cycle       Energy         DIIS error
 ---------------------------------------
    1   -1037.1729835279      4.80e-02  
    2   -1033.5284785442      6.86e-03  
    3   -1033.3601365417      9.09e-03  
    4   -1033.8110365398      1.05e-03  
    5   -1033.8177693868      4.29e-04  
    6   -1033.8190283462      1.07e-04  
    7   -1033.8191019286      2.99e-05  
    8   -1033.8191078041      1.16e-05  
    9   -1033.8191095632      3.71e-06  Convergence criterion met
 ---------------------------------------
 SCF time:   CPU 90.26s  wall 6.00s 
 SCF   energy in the final basis set =    -1033.8191095632
 Total energy in the final basis set =    -1033.8191095632
 Exchange:     0.5400 Hartree-Fock + 1.0000 M06-2X
 Correlation:  1.0000 M06-2X
 Using SG-3 standard quadrature grid
 
 SM12 calculation using Merz-Singh-Kollman charges
 Citation of the SM12 model:
 Marenich, A.V.; Cramer, C.J.; Truhlar, D.G.
 J. Chem. Theory Comput. 2013, 9, 609-612.
 iSolventCode=           1
 Solvent: water                                                           
 
  Building new vdw surfaces
         Merz-Kollman ESP Net Atomic Charges

     Atom                 Charge (a.u.)
  ----------------------------------------
      1 C                    -0.401737
      2 C                     0.559627
      3 F                    -0.241551
      4 C                    -0.477180
      5 H                     0.199172
      6 C                    -0.043575
      7 C                    -0.438758
      8 H                     0.199778
      9 C                     0.474764
     10 F                    -0.236980
     11 S                     1.143146
     12 O                    -0.666768
     13 O                    -0.590810
     14 N                    -0.996913
     15 H                     0.381279
     16 H                     0.136505
  ----------------------------------------
  Sum of atomic charges =    -1.000000

  Related Dipole Moment =    11.2434 (X  8.3135 Y -1.6081 Z -7.3968)


 Charges (in A.U.) from Merz-Kollman fitting 
 -----------------------------------------------
 Center     Atomic                  MZ       
 Number     Number                  Charge
 -----------------------------------------------
    1          6                   -0.401737
    2          6                    0.559627
    3          9                   -0.241551
    4          6                   -0.477180
    5          1                    0.199172
    6          6                   -0.043575
    7          6                   -0.438758
    8          1                    0.199778
    9          6                    0.474764
   10          9                   -0.236980
   11         16                    1.143146
   12          8                   -0.666768
   13          8                   -0.590810
   14          7                   -0.996913
   15          1                    0.381279
   16          1                    0.136505
 -----------------------------------------------
 A restricted SCF calculation will be
 performed using Roothaan-Hall, DIIS
 SCF converges when DIIS error is below 1.0e-05
 ---------------------------------------
  Cycle       Energy         DIIS error
 ---------------------------------------
         Merz-Kollman ESP Net Atomic Charges

     Atom                 Charge (a.u.)
  ----------------------------------------
      1 C                    -0.391721
      2 C                     0.520838
      3 F                    -0.246270
      4 C                    -0.468178
      5 H                     0.227348
      6 C                     0.020103
      7 C                    -0.425584
      8 H                     0.228107
      9 C                     0.437050
     10 F                    -0.233863
     11 S                     1.157105
     12 O                    -0.705755
     13 O                    -0.635287
     14 N                    -1.050005
     15 H                     0.407873
     16 H                     0.158237
  ----------------------------------------
  Sum of atomic charges =    -1.000000

  Related Dipole Moment =    13.6349 (X  8.7331 Y -1.3470 Z -10.3841)


 Charges (in A.U.) from Merz-Kollman fitting 
 -----------------------------------------------
 Center     Atomic                  MZ       
 Number     Number                  Charge
 -----------------------------------------------
    1          6                   -0.391721
    2          6                    0.520838
    3          9                   -0.246270
    4          6                   -0.468178
    5          1                    0.227348
    6          6                    0.020103
    7          6                   -0.425584
    8          1                    0.228107
    9          6                    0.437050
   10          9                   -0.233863
   11         16                    1.157105
   12          8                   -0.705755
   13          8                   -0.635287
   14          7                   -1.050005
   15          1                    0.407873
   16          1                    0.158237
 -----------------------------------------------
    1   -1033.8191087879      6.46e-04  Roothaan Step
 ---------------------------------------
  Cycle       Energy         DIIS error
 ---------------------------------------
         Merz-Kollman ESP Net Atomic Charges

     Atom                 Charge (a.u.)
  ----------------------------------------
      1 C                    -0.339715
      2 C                     0.523781
      3 F                    -0.244373
      4 C                    -0.492110
      5 H                     0.240616
      6 C                    -0.019447
      7 C                    -0.452715
      8 H                     0.242731
      9 C                     0.441373
     10 F                    -0.233616
     11 S                     1.188175
     12 O                    -0.722378
     13 O                    -0.643396
     14 N                    -1.068897
     15 H                     0.401290
     16 H                     0.178680
  ----------------------------------------
  Sum of atomic charges =    -1.000000

  Related Dipole Moment =    13.5034 (X  8.5830 Y -1.2783 Z -10.3460)


 Charges (in A.U.) from Merz-Kollman fitting 
 -----------------------------------------------
 Center     Atomic                  MZ       
 Number     Number                  Charge
 -----------------------------------------------
    1          6                   -0.339715
    2          6                    0.523781
    3          9                   -0.244373
    4          6                   -0.492110
    5          1                    0.240616
    6          6                   -0.019447
    7          6                   -0.452715
    8          1                    0.242731
    9          6                    0.441373
   10          9                   -0.233616
   11         16                    1.188175
   12          8                   -0.722378
   13          8                   -0.643396
   14          7                   -1.068897
   15          1                    0.401290
   16          1                    0.178680
 -----------------------------------------------
    1   -1033.8090161627      3.95e-04  
         Merz-Kollman ESP Net Atomic Charges

     Atom                 Charge (a.u.)
  ----------------------------------------
      1 C                    -0.377169
      2 C                     0.523155
      3 F                    -0.246050
      4 C                    -0.483245
      5 H                     0.238234
      6 C                     0.013044
      7 C                    -0.442262
      8 H                     0.240053
      9 C                     0.440423
     10 F                    -0.234246
     11 S                     1.196837
     12 O                    -0.724504
     13 O                    -0.649338
     14 N                    -1.072548
     15 H                     0.405859
     16 H                     0.171756
  ----------------------------------------
  Sum of atomic charges =    -1.000000

  Related Dipole Moment =    13.9013 (X  8.6816 Y -1.2529 Z -10.7845)


 Charges (in A.U.) from Merz-Kollman fitting 
 -----------------------------------------------
 Center     Atomic                  MZ       
 Number     Number                  Charge
 -----------------------------------------------
    1          6                   -0.377169
    2          6                    0.523155
    3          9                   -0.246050
    4          6                   -0.483245
    5          1                    0.238234
    6          6                    0.013044
    7          6                   -0.442262
    8          1                    0.240053
    9          6                    0.440423
   10          9                   -0.234246
   11         16                    1.196837
   12          8                   -0.724504
   13          8                   -0.649338
   14          7                   -1.072548
   15          1                    0.405859
   16          1                    0.171756
 -----------------------------------------------
    2   -1033.8087515036      3.51e-04  
         Merz-Kollman ESP Net Atomic Charges

     Atom                 Charge (a.u.)
  ----------------------------------------
      1 C                    -0.369171
      2 C                     0.522737
      3 F                    -0.245809
      4 C                    -0.485499
      5 H                     0.240583
      6 C                     0.009411
      7 C                    -0.445277
      8 H                     0.242632
      9 C                     0.441264
     10 F                    -0.234244
     11 S                     1.194336
     12 O                    -0.726297
     13 O                    -0.649372
     14 N                    -1.077335
     15 H                     0.406759
     16 H                     0.175282
  ----------------------------------------
  Sum of atomic charges =    -1.000000

  Related Dipole Moment =    13.9765 (X  8.6708 Y -1.2242 Z -10.8932)


 Charges (in A.U.) from Merz-Kollman fitting 
 -----------------------------------------------
 Center     Atomic                  MZ       
 Number     Number                  Charge
 -----------------------------------------------
    1          6                   -0.369171
    2          6                    0.522737
    3          9                   -0.245809
    4          6                   -0.485499
    5          1                    0.240583
    6          6                    0.009411
    7          6                   -0.445277
    8          1                    0.242632
    9          6                    0.441264
   10          9                   -0.234244
   11         16                    1.194336
   12          8                   -0.726297
   13          8                   -0.649372
   14          7                   -1.077335
   15          1                    0.406759
   16          1                    0.175282
 -----------------------------------------------
    3   -1033.8069370412      6.25e-05  
         Merz-Kollman ESP Net Atomic Charges

     Atom                 Charge (a.u.)
  ----------------------------------------
      1 C                    -0.373590
      2 C                     0.523341
      3 F                    -0.245762
      4 C                    -0.486240
      5 H                     0.240881
      6 C                     0.012001
      7 C                    -0.445944
      8 H                     0.242948
      9 C                     0.441784
     10 F                    -0.234185
     11 S                     1.200020
     12 O                    -0.727664
     13 O                    -0.651160
     14 N                    -1.077855
     15 H                     0.406230
     16 H                     0.175196
  ----------------------------------------
  Sum of atomic charges =    -1.000000

  Related Dipole Moment =    13.9986 (X  8.6743 Y -1.2236 Z -10.9189)


 Charges (in A.U.) from Merz-Kollman fitting 
 -----------------------------------------------
 Center     Atomic                  MZ       
 Number     Number                  Charge
 -----------------------------------------------
    1          6                   -0.373590
    2          6                    0.523341
    3          9                   -0.245762
    4          6                   -0.486240
    5          1                    0.240881
    6          6                    0.012001
    7          6                   -0.445944
    8          1                    0.242948
    9          6                    0.441784
   10          9                   -0.234185
   11         16                    1.200020
   12          8                   -0.727664
   13          8                   -0.651160
   14          7                   -1.077855
   15          1                    0.406230
   16          1                    0.175196
 -----------------------------------------------
    4   -1033.8061322991      2.88e-05  
    5   -1033.8059653795      6.11e-06  Convergence criterion met
 ---------------------------------------
 SCF time:   CPU 78.33s  wall 5.00s 
(0)  E-EN(g) gas-phase elect-nuc energy                -1033.819109563 a.u.
(1)  E-EN(liq) elect-nuc energy of solute              -1033.805965380 a.u.
(2)  G-P(liq) polarization free energy of solvation           -78.6464 kcal/mol
(3)  G-ENP(liq) elect-nuc-pol free energy of system    -1033.931296351 a.u.
(4)  G-CDS(liq) cavity-dispersion-solvent structure 
     free energy                                                4.4913 kcal/mol
(5)  G-P-CDS(liq) = G-P(liq) + G-CDS(liq) = (2) + (4)         -74.1550 kcal/mol
(6)  G-S(liq) free energy of system = (1) + (5)        -1033.924138973 a.u.
(7)  DeltaE-EN(liq) elect-nuc reorganization
     energy of solute molecule (7) = (1) - (0)                  8.2481 kcal/mol
(8)  DeltaG-ENP(liq) elect-nuc-pol free energy
     of solvation (8) = (3) - (0)                             -70.3983 kcal/mol
(9)  DeltaG-S(liq) free energy of  solvation
     (9) = (6) - (0)                                          -65.9069 kcal/mol
 SCF   energy in the final basis set =    -1033.9241389732
 Total energy in the final basis set =    -1033.9241389732
 
 --------------------------------------------------------------
 
                    Orbital Energies (a.u.)
 --------------------------------------------------------------
 
 Alpha MOs
 -- Occupied --
-90.1478 -25.3022 -25.2954 -19.6293 -19.6285 -14.7328 -10.6721 -10.6711
-10.6021 -10.5898 -10.5812 -10.5806  -8.4597  -6.3821  -6.3817  -6.3809
 -1.3969  -1.3920  -1.2205  -1.1043  -1.0029  -0.9786  -0.8892  -0.8766
 -0.7597  -0.7387  -0.7014  -0.6631  -0.6305  -0.6099  -0.5945  -0.5869
 -0.5827  -0.5694  -0.5566  -0.5510  -0.5300  -0.4866  -0.4693  -0.4639
 -0.4541  -0.4302  -0.4049  -0.3855  -0.3729  -0.3448  -0.3388  -0.3236
 -0.3072
 -- Virtual --
 -0.0239  -0.0148  -0.0102  -0.0004   0.0020   0.0044   0.0070   0.0107
  0.0311   0.0441   0.0503   0.0607   0.0670   0.0742   0.0885   0.0930
  0.0976   0.1018   0.1032   0.1152   0.1247   0.1317   0.1337   0.1454
  0.1504   0.1573   0.1604   0.1676   0.1755   0.1866   0.1898   0.1938
  0.1991   0.2072   0.2107   0.2205   0.2303   0.2397   0.2430   0.2480
  0.2550   0.2599   0.2711   0.2770   0.2877   0.2916   0.3028   0.3048
  0.3086   0.3177   0.3214   0.3489   0.3553   0.3683   0.3770   0.3795
  0.3842   0.4084   0.4191   0.4294   0.4459   0.4528   0.4623   0.4934
  0.5139   0.5681   0.5917   0.6315   0.6576   0.6867   0.6881   0.7040
  0.7188   0.7260   0.7338   0.7435   0.7681   0.7728   0.7850   0.7936
  0.8081   0.8644   0.8988   0.9384   0.9495   0.9677   0.9770   0.9891
  1.0103   1.0460   1.0623   1.0721   1.0805   1.0994   1.1239   1.1455
  1.1688   1.1791   1.2029   1.2167   1.2411   1.2602   1.2686   1.2939
  1.3303   1.3459   1.3684   1.3799   1.3830   1.3897   1.3937   1.3944
  1.4203   1.4451   1.4652   1.4932   1.4975   1.5036   1.5511   1.6484
  1.6846   1.6997   1.7089   1.7243   1.7564   1.7809   1.7935   1.8081
  1.8139   1.8288   1.8423   1.8453   1.8691   1.8777   1.8973   1.9002
  1.9132   1.9294   1.9578   1.9748   1.9759   2.0018   2.0076   2.0189
  2.0364   2.0514   2.0605   2.0754   2.1104   2.1715   2.1887   2.2031
  2.2239   2.2502   2.2867   2.2970   2.3170   2.3290   2.3455   2.3881
  2.4086   2.4521   2.4909   2.5867   2.5926   2.6234   2.6418   2.6546
  2.6841   2.7003   2.8250   2.8378   2.8808   2.9572   3.0443   3.1908
  3.2243   3.3152   3.4317   3.9945   4.0760   4.2274   4.2539   4.2644
  4.3134   4.3389   4.4413   4.4786   4.7746   6.1327   6.2910
 --------------------------------------------------------------
 
          Ground-State Mulliken Net Atomic Charges

     Atom                 Charge (a.u.)
  ----------------------------------------
      1 C                    -3.568573
      2 C                    -0.946982
      3 F                    -0.368763
      4 C                     1.683853
      5 H                     0.303795
      6 C                     1.705471
      7 C                     1.999276
      8 H                     0.310584
      9 C                    -0.387828
     10 F                    -0.382108
     11 S                     0.533969
     12 O                    -0.756753
     13 O                    -0.829911
     14 N                    -1.023186
     15 H                     0.412331
     16 H                     0.314825
  ----------------------------------------
  Sum of atomic charges =    -1.000000

         Merz-Kollman ESP Net Atomic Charges

     Atom                 Charge (a.u.)
  ----------------------------------------
      1 C                    -0.373543
      2 C                     0.523643
      3 F                    -0.245877
      4 C                    -0.486389
      5 H                     0.240891
      6 C                     0.012099
      7 C                    -0.446109
      8 H                     0.242967
      9 C                     0.441992
     10 F                    -0.234273
     11 S                     1.201248
     12 O                    -0.728073
     13 O                    -0.651307
     14 N                    -1.078782
     15 H                     0.406275
     16 H                     0.175238
  ----------------------------------------
  Sum of atomic charges =    -1.000000

  Related Dipole Moment =    14.0006 (X  8.6712 Y -1.2195 Z -10.9242)

 -----------------------------------------------------------------
                    Cartesian Multipole Moments
 -----------------------------------------------------------------
    Charge (ESU x 10^10)
                -4.8032
    Dipole Moment (Debye)
         X       8.6859      Y      -1.1812      Z     -10.9537
       Tot      14.0293
    Quadrupole Moments (Debye-Ang)
        XX    -100.2495     XY      -0.1299     YY     -89.3829
        XZ      16.5237     YZ      -6.1456     ZZ     -75.8792
    Octopole Moments (Debye-Ang^2)
       XXX     399.5205    XXY     -48.9167    XYY     120.1410
       YYY    -134.9604    XXZ       6.8723    XYZ       7.3428
       YYZ      36.6323    XZZ     110.8940    YZZ     -28.9875
       ZZZ      60.7562
    Hexadecapole Moments (Debye-Ang^3)
      XXXX   -1913.4641   XXXY     257.5771   XXYY    -359.2335
      XYYY     226.4813   YYYY    -446.5898   XXXZ     -92.1779
      XXYZ      31.6593   XYYZ     -54.2991   YYYZ     189.4008
      XXZZ    -545.3021   XYZZ      43.6532   YYZZ    -391.8584
      XZZZ     -94.6510   YZZZ     100.8109   ZZZZ   -1503.4331
 -----------------------------------------------------------------
 Total job time:  13.41s(wall), 175.98s(cpu) 
 Thu May 26 10:29:18 2022

        *************************************************************
        *                                                           *
        *  Thank you very much for using Q-Chem.  Have a nice day.  *
        *                                                           *
        *************************************************************


