                  Welcome to Q-Chem
     A Quantum Leap Into The Future Of Chemistry


 Q-Chem 5.4 (devel), Q-Chem, Inc., Pleasanton, CA (2021)

 E. Epifanovsky,  A. T. B. Gilbert,  Xintian Feng,  Joonho Lee,  Yuezhi Mao,  
 N. Mardirossian,  P. Pokhilko,  A. White,  M. Wormit,  M. P. Coons,  
 A. L. Dempwolff,  Zhengting Gan,  D. Hait,  P. R. Horn,  L. D. Jacobson,  
 I. Kaliman,  J. Kussmann,  A. W. Lange,  Ka Un Lao,  D. S. Levine,  Jie Liu,  
 S. C. McKenzie,  A. F. Morrison,  K. Nanda,  F. Plasser,  D. R. Rehn,  
 M. L. Vidal,  Zhi-Qiang You,  Ying Zhu,  B. Alam,  B. Albrecht,  
 A. Aldossary,  E. Alguire,  J. H. Andersen,  D. Barton,  K. Begam,  A. Behn,  
 Y. A. Bernard,  E. J. Berquist,  H. Burton,  A. Carreras,  K. Carter-Fenk,  
 R. Chakraborty,  A. D. Chien,  K. D. Closser,  V. Cofer-Shabica,  
 S. Dasgupta,  Jia Deng,  M. de Wergifosse,  M. Diedenhofen,  Hainam Do,  
 S. Ehlert,  Po-Tung Fang,  S. Fatehi,  Qingguo Feng,  T. Friedhoff,  
 J. Gayvert,  Qinghui Ge,  G. Gidofalvi,  M. Goldey,  J. Gomes,  
 C. Gonzalez-Espinoza,  S. Gulania,  A. Gunina,  M. W. D. Hanson-Heine,  
 P. H. P. Harbach,  A. W. Hauser,  M. F. Herbst,  M. Hernandez Vera,  
 M. Hodecker,  Z. C. Holden,  S. Houck,  Xunkun Huang,  Kerwin Hui,  
 B. C. Huynh,  M. Ivanov,  Hyunjun Ji,  Hanjie Jiang,  B. Kaduk,  S. Kaehler,  
 K. Khistyaev,  Jaehoon Kim,  P. Klunzinger,  Z. Koczor-Benda,  
 Joong Hoon Koh,  D. Kosenkov,  L. Koulias,  T. Kowalczyk,  C. M. Krauter,  
 K. Kue,  A. Kunitsa,  T. Kus,  A. Landau,  K. V. Lawler,  D. Lefrancois,  
 S. Lehtola,  Rain Li,  Yi-Pei Li,  Jiashu Liang,  M. Liebenthal,  
 Hung-Hsuan Lin,  You-Sheng Lin,  Fenglai Liu,  Kuan-Yu Liu,  
 M. Loipersberger,  A. Luenser,  A. Manjanath,  P. Manohar,  E. Mansoor,  
 S. F. Manzer,  Shan-Ping Mao,  A. V. Marenich,  T. Markovich,  S. Mason,  
 S. A. Maurer,  P. F. McLaughlin,  M. F. S. J. Menger,  J.-M. Mewes,  
 S. A. Mewes,  P. Morgante,  J. W. Mullinax,  K. J. Oosterbaan,  G. Paran,  
 Alexander C. Paul,  Suranjan K. Paul,  F. Pavosevic,  Zheng Pei,  S. Prager,  
 E. I. Proynov,  E. Ramos,  B. Rana,  A. E. Rask,  A. Rettig,  R. M. Richard,  
 F. Rob,  E. Rossomme,  T. Scheele,  M. Scheurer,  M. Schneider,  
 N. Sergueev,  S. M. Sharada,  W. Skomorowski,  D. W. Small,  C. J. Stein,  
 Yu-Chuan Su,  E. J. Sundstrom,  Zhen Tao,  J. Thirman,  T. Tsuchimochi,  
 N. M. Tubman,  S. P. Veccham,  O. Vydrov,  J. Wenzel,  J. Witte,  A. Yamada,  
 Kun Yao,  S. Yeganeh,  S. R. Yost,  A. Zech,  Igor Ying Zhang,  Xing Zhang,  
 Yu Zhang,  D. Zuev,  A. Aspuru-Guzik,  A. T. Bell,  N. A. Besley,  
 K. B. Bravaya,  B. R. Brooks,  D. Casanova,  Jeng-Da Chai,  S. Coriani,  
 C. J. Cramer,  A. E. DePrince, III,  R. A. DiStasio Jr.,  A. Dreuw,  
 B. D. Dunietz,  T. R. Furlani,  W. A. Goddard III,  S. Grimme,  
 S. Hammes-Schiffer,  T. Head-Gordon,  W. J. Hehre,  Chao-Ping Hsu,  
 T.-C. Jagau,  Yousung Jung,  A. Klamt,  Jing Kong,  D. S. Lambrecht,  
 WanZhen Liang,  N. J. Mayhall,  C. W. McCurdy,  J. B. Neaton,  
 C. Ochsenfeld,  J. A. Parkhill,  R. Peverati,  V. A. Rassolov,  Yihan Shao,  
 L. V. Slipchenko,  T. Stauch,  R. P. Steele,  J. E. Subotnik,  
 A. J. W. Thom,  A. Tkatchenko,  D. G. Truhlar,  T. Van Voorhis,  
 T. A. Wesolowski,  K. B. Whaley,  H. L. Woodcock III,  P. M. Zimmerman,  
 S. Faraji,  P. M. W. Gill,  M. Head-Gordon,  J. M. Herbert,  A. I. Krylov

 Additional authors for Version 5.4.1: 
 S. Kotaru,  Shaozhi Li,  Xiangyuan Li,  F. Matz,  A. Molle,  Haisheng Ren,  
 Yingli Su,  Hung-Yi Tsai,  C. Utku,  Fang Wang

 Contributors to earlier versions of Q-Chem not listed above: 
 R. D. Adamson,  B. Austin,  R. Baer,  J. Baker,  G. J. O. Beran,  
 K. Brandhorst,  S. T. Brown,  E. F. C. Byrd,  A. K. Chakraborty,  
 G. K. L. Chan,  Chun-Min Chang,  Yunqing Chen,  C.-L. Cheng,  
 Siu Hung Chien,  D. M. Chipman,  D. L. Crittenden,  H. Dachsel,  
 R. J. Doerksen,  A. D. Dutoi,  R. G. Edgar,  J. Fosso-Tande,  
 L. Fusti-Molnar,  D. Ghosh,  A. Ghysels,  A. Golubeva-Zadorozhnaya,  
 J. Gonthier,  M. S. Gordon,  S. R. Gwaltney,  G. Hawkins,  J. E. Herr,  
 A. Heyden,  S. Hirata,  E. G. Hohenstein,  G. Kedziora,  F. J. Keil,  
 C. Kelley,  Jihan Kim,  R. A. King,  R. Z. Khaliullin,  P. P. Korambath,  
 W. Kurlancheek,  A. Laurent,  A. M. Lee,  M. S. Lee,  S. V. Levchenko,  
 Ching Yeh Lin,  D. Liotard,  E. Livshits,  R. C. Lochan,  I. Lotan,  
 L. A. Martinez-Martinez,  P. E. Maslen,  N. Nair,  D. P. O'Neill,  
 D. Neuhauser,  E. Neuscamman,  C. M. Oana,  R. Olivares-Amaya,  R. Olson,  
 T. M. Perrine,  B. Peters,  P. A. Pieniazek,  A. Prociuk,  Y. M. Rhee,  
 J. Ritchie,  M. A. Rohrdanz,  E. Rosta,  N. J. Russ,  H. F. Schaefer III,  
 M. W. Schmidt,  N. E. Schultz,  S. Sharma,  N. Shenvi,  C. D. Sherrill,  
 A. C. Simmonett,  A. Sodt,  T. Stein,  D. Stuck,  K. S. Thanthiriwatte,  
 V. Vanovschi,  L. Vogt,  Tao Wang,  A. Warshel,  M. A. Watson,  
 C. F. Williams,  Q. Wu,  X. Xu,  Jun Yang,  W. Zhang,  Yan Zhao

 Please cite Q-Chem as follows:
 Y. Shao et al., Mol. Phys. 113, 184-215 (2015)
 DOI: 10.1080/00268976.2014.952696

 Q-Chem 5.4.1 for Intel X86 EM64T Linux

 Parts of Q-Chem use Armadillo 9.800.1 (Horizon Scraper).
 http://arma.sourceforge.net/

 Q-Chem begins on Thu May 26 10:29:06 2022  

 Host: gadi-cpu-clx-2201.gadi.nci.org.au
0

     Scratch files written to /jobfs/41312673.gadi-pbs/qchem2937542//
 Processing $rem in /apps/qchem/5.4.1/config/preferences:
 Processing $rem in /home/561/yj5695/.qchemrc:
 Symmetry turned off for PCM/SM12/SMD calculation
 Method-specific promolecule density matrix will be built for SM12 calculation

 Checking the input file for inconsistencies... 	...done.

--------------------------------------------------------------
User input:
--------------------------------------------------------------
$molecule
-1  1
C -1.4718447939  0.6103379044 -0.8152415379
C -2.6138909732  0.8403103955 -1.5733508601
F -3.831819138  0.9225691882 -1.0321529868
C -2.5490074405  0.9931167956 -2.9542351273
F -3.6636794336  1.2108173107 -3.6551109999
C -1.3314409805  0.9178355555 -3.6073234255
C -0.1752488255  0.6906276219 -2.8751817571
F  1.0039087834  0.6184035176 -3.4943650348
C -0.2630878653  0.5421485901 -1.5028446904
F  0.8769142541  0.334913442 -0.8305556587
S -1.4193744072  0.4123923173  1.0071976453
O -2.8254256302  0.5669051918  1.4300183942
O -0.8787429701 -0.9664821586  1.1363709004
N -0.546904646  1.5437139664  1.608367208
H  0.4370414455  1.3106831042  1.4551140528
F -1.268374379  1.0634672575 -4.9283521222
$end

$rem
jobtype sp
exchange M062X
basis 6-31+G*
SMX_GAS_PHASE = TRUE
solvent_method sm12
$end

$smx
solvent water
charges mk
$end
--------------------------------------------------------------
 ----------------------------------------------------------------
             Standard Nuclear Orientation (Angstroms)
    I     Atom           X                Y                Z
 ----------------------------------------------------------------
    1      C      -1.4718447939     0.6103379044    -0.8152415379
    2      C      -2.6138909732     0.8403103955    -1.5733508601
    3      F      -3.8318191380     0.9225691882    -1.0321529868
    4      C      -2.5490074405     0.9931167956    -2.9542351273
    5      F      -3.6636794336     1.2108173107    -3.6551109999
    6      C      -1.3314409805     0.9178355555    -3.6073234255
    7      C      -0.1752488255     0.6906276219    -2.8751817571
    8      F       1.0039087834     0.6184035176    -3.4943650348
    9      C      -0.2630878653     0.5421485901    -1.5028446904
   10      F       0.8769142541     0.3349134420    -0.8305556587
   11      S      -1.4193744072     0.4123923173     1.0071976453
   12      O      -2.8254256302     0.5669051918     1.4300183942
   13      O      -0.8787429701    -0.9664821586     1.1363709004
   14      N      -0.5469046460     1.5437139664     1.6083672080
   15      H       0.4370414455     1.3106831042     1.4551140528
   16      F      -1.2683743790     1.0634672575    -4.9283521222
 ----------------------------------------------------------------
 Nuclear Repulsion Energy =        1221.74537329 hartrees
 There are       61 alpha and       61 beta electrons
 Requested basis set is 6-31+G(d)
 There are 78 shells and 291 basis functions

 Total QAlloc Memory Limit   2000 MB
 Mega-Array Size       188 MB
 MEM_STATIC part       192 MB
 A cutoff of  1.0D-08 yielded   2358 shell pairs
 There are     34894 function pairs
 Smallest overlap matrix eigenvalue = 1.44E-06

 Q-Chem warning in module stvman/mkSTV.C, line 323:

 Overlap eigenvalue is smaller than square root of threshold
 Use THRESH >= 12 to get rid of this warning


 Scale SEOQF with 1.000000e-01/1.000000e-01/1.000000e-01

 Standard Electronic Orientation quadrupole field applied
 Nucleus-field energy     =    -0.0000000554 hartrees
 ================ Generating on-the-fly Promolecule Density  ================
Attempting to make child job directory: /jobfs/41312673.gadi-pbs/qchem2937542//Frg1/
Attempting to make child job directory: /jobfs/41312673.gadi-pbs/qchem2937542//Frg2/
Attempting to make child job directory: /jobfs/41312673.gadi-pbs/qchem2937542//Frg3/
Attempting to make child job directory: /jobfs/41312673.gadi-pbs/qchem2937542//Frg4/
Attempting to make child job directory: /jobfs/41312673.gadi-pbs/qchem2937542//Frg5/
Attempting to make child job directory: /jobfs/41312673.gadi-pbs/qchem2937542//Frg6/
Creating input file /jobfs/41312673.gadi-pbs/qchem2937542/Frg1.input
using default PutDataFrgm: nothing
calling putenv with: QCSCRATCH=/jobfs/41312673.gadi-pbs/qchem2937542/ 
Spawning Job For Fragment 0
Done Job For Fragment 0
calling putenv with: QCSCRATCH=/jobfs/41312673.gadi-pbs 
calling putenv with: QCTHREADS=16 
Creating input file /jobfs/41312673.gadi-pbs/qchem2937542/Frg2.input
using default PutDataFrgm: nothing
calling putenv with: QCSCRATCH=/jobfs/41312673.gadi-pbs/qchem2937542/ 
Spawning Job For Fragment 1
Done Job For Fragment 1
calling putenv with: QCSCRATCH=/jobfs/41312673.gadi-pbs 
calling putenv with: QCTHREADS=16 
Creating input file /jobfs/41312673.gadi-pbs/qchem2937542/Frg3.input
using default PutDataFrgm: nothing
calling putenv with: QCSCRATCH=/jobfs/41312673.gadi-pbs/qchem2937542/ 
Spawning Job For Fragment 2
Done Job For Fragment 2
calling putenv with: QCSCRATCH=/jobfs/41312673.gadi-pbs 
calling putenv with: QCTHREADS=16 
Creating input file /jobfs/41312673.gadi-pbs/qchem2937542/Frg4.input
using default PutDataFrgm: nothing
calling putenv with: QCSCRATCH=/jobfs/41312673.gadi-pbs/qchem2937542/ 
Spawning Job For Fragment 3
Done Job For Fragment 3
calling putenv with: QCSCRATCH=/jobfs/41312673.gadi-pbs 
calling putenv with: QCTHREADS=16 
Creating input file /jobfs/41312673.gadi-pbs/qchem2937542/Frg5.input
using default PutDataFrgm: nothing
calling putenv with: QCSCRATCH=/jobfs/41312673.gadi-pbs/qchem2937542/ 
Spawning Job For Fragment 4
Done Job For Fragment 4
calling putenv with: QCSCRATCH=/jobfs/41312673.gadi-pbs 
calling putenv with: QCTHREADS=16 
Creating input file /jobfs/41312673.gadi-pbs/qchem2937542/Frg6.input
using default PutDataFrgm: nothing
calling putenv with: QCSCRATCH=/jobfs/41312673.gadi-pbs/qchem2937542/ 
Spawning Job For Fragment 5
Done Job For Fragment 5
calling putenv with: QCSCRATCH=/jobfs/41312673.gadi-pbs 
calling putenv with: QCTHREADS=16 
 Time for running child jobs:  CPU 2.30 s  wall 2.43 s
 ============= Method Specific Promolecule Density Constructed =============
 Guess from superposition of atomic densities
 Warning:  Energy on first SCF cycle will be non-variational
 SAD guess density has 121.000000 electrons

 -----------------------------------------------------------------------
  General SCF calculation program by
  Eric Jon Sundstrom, Paul Horn, Yuezhi Mao, Dmitri Zuev, Alec White,
  David Stuck, Shaama M.S., Shane Yost, Joonho Lee, David Small,
  Daniel Levine, Susi Lehtola, Hugh Burton, Evgeny Epifanovsky,
  Bang C. Huynh
 -----------------------------------------------------------------------
 Exchange:     0.5400 Hartree-Fock + 1.0000 M06-2X
 Correlation:  1.0000 M06-2X
 Using SG-3 standard quadrature grid
 using 16 threads for integral computing
 -------------------------------------------------------
 OpenMP Integral computing Module                
 Release: version 1.0, May 2013, Q-Chem Inc. Pittsburgh 
 -------------------------------------------------------
 A restricted SCF calculation will be
 performed using DIIS
 SCF converges when DIIS error is below 1.0e-05
 ---------------------------------------
  Cycle       Energy         DIIS error
 ---------------------------------------
    1   -1335.4328908709      4.25e-02  
    2   -1331.1259686475      5.80e-03  
    3   -1330.9428730323      7.71e-03  
    4   -1331.4245537793      7.64e-04  
    5   -1331.4281165140      4.55e-04  
    6   -1331.4302457800      8.54e-05  
    7   -1331.4303156184      3.34e-05  
    8   -1331.4303258873      7.51e-06  Convergence criterion met
 ---------------------------------------
 SCF time:   CPU 115.82s  wall 8.00s 
 SCF   energy in the final basis set =    -1331.4303258873
 Total energy in the final basis set =    -1331.4303258873
 Exchange:     0.5400 Hartree-Fock + 1.0000 M06-2X
 Correlation:  1.0000 M06-2X
 Using SG-3 standard quadrature grid
 
 SM12 calculation using Merz-Singh-Kollman charges
 Citation of the SM12 model:
 Marenich, A.V.; Cramer, C.J.; Truhlar, D.G.
 J. Chem. Theory Comput. 2013, 9, 609-612.
 iSolventCode=           1
 Solvent: water                                                           
 
  Building new vdw surfaces
         Merz-Kollman ESP Net Atomic Charges

     Atom                 Charge (a.u.)
  ----------------------------------------
      1 C                    -0.340631
      2 C                     0.286327
      3 F                    -0.156713
      4 C                     0.093487
      5 F                    -0.163921
      6 C                     0.092336
      7 C                     0.148889
      8 F                    -0.166723
      9 C                     0.180800
     10 F                    -0.150036
     11 S                     1.147579
     12 O                    -0.583283
     13 O                    -0.650870
     14 N                    -0.967234
     15 H                     0.375336
     16 F                    -0.145344
  ----------------------------------------
  Sum of atomic charges =    -1.000000

  Related Dipole Moment =     9.1099 (X  8.1109 Y -2.2545 Z -3.4816)


 Charges (in A.U.) from Merz-Kollman fitting 
 -----------------------------------------------
 Center     Atomic                  MZ       
 Number     Number                  Charge
 -----------------------------------------------
    1          6                   -0.340631
    2          6                    0.286327
    3          9                   -0.156713
    4          6                    0.093487
    5          9                   -0.163921
    6          6                    0.092336
    7          6                    0.148889
    8          9                   -0.166723
    9          6                    0.180800
   10          9                   -0.150036
   11         16                    1.147579
   12          8                   -0.583283
   13          8                   -0.650870
   14          7                   -0.967234
   15          1                    0.375336
   16          9                   -0.145344
 -----------------------------------------------
 A restricted SCF calculation will be
 performed using Roothaan-Hall, DIIS
 SCF converges when DIIS error is below 1.0e-05
 ---------------------------------------
  Cycle       Energy         DIIS error
 ---------------------------------------
         Merz-Kollman ESP Net Atomic Charges

     Atom                 Charge (a.u.)
  ----------------------------------------
      1 C                    -0.330291
      2 C                     0.259691
      3 F                    -0.162157
      4 C                     0.134385
      5 F                    -0.162165
      6 C                     0.141856
      7 C                     0.193869
      8 F                    -0.164890
      9 C                     0.154282
     10 F                    -0.147557
     11 S                     1.158733
     12 O                    -0.628733
     13 O                    -0.688821
     14 N                    -1.016201
     15 H                     0.400413
     16 F                    -0.142416
  ----------------------------------------
  Sum of atomic charges =    -1.000000

  Related Dipole Moment =    10.5734 (X  8.5034 Y -1.9584 Z -5.9711)


 Charges (in A.U.) from Merz-Kollman fitting 
 -----------------------------------------------
 Center     Atomic                  MZ       
 Number     Number                  Charge
 -----------------------------------------------
    1          6                   -0.330291
    2          6                    0.259691
    3          9                   -0.162157
    4          6                    0.134385
    5          9                   -0.162165
    6          6                    0.141856
    7          6                    0.193869
    8          9                   -0.164890
    9          6                    0.154282
   10          9                   -0.147557
   11         16                    1.158733
   12          8                   -0.628733
   13          8                   -0.688821
   14          7                   -1.016201
   15          1                    0.400413
   16          9                   -0.142416
 -----------------------------------------------
    1   -1331.4303263748      4.64e-04  Roothaan Step
 ---------------------------------------
  Cycle       Energy         DIIS error
 ---------------------------------------
         Merz-Kollman ESP Net Atomic Charges

     Atom                 Charge (a.u.)
  ----------------------------------------
      1 C                    -0.295024
      2 C                     0.265801
      3 F                    -0.154702
      4 C                     0.104371
      5 F                    -0.149123
      6 C                     0.108194
      7 C                     0.161643
      8 F                    -0.151367
      9 C                     0.160947
     10 F                    -0.142347
     11 S                     1.186205
     12 O                    -0.632044
     13 O                    -0.700256
     14 N                    -1.029634
     15 H                     0.393566
     16 F                    -0.126230
  ----------------------------------------
  Sum of atomic charges =    -1.000000

  Related Dipole Moment =    10.3185 (X  8.3274 Y -2.0156 Z -5.7501)


 Charges (in A.U.) from Merz-Kollman fitting 
 -----------------------------------------------
 Center     Atomic                  MZ       
 Number     Number                  Charge
 -----------------------------------------------
    1          6                   -0.295024
    2          6                    0.265801
    3          9                   -0.154702
    4          6                    0.104371
    5          9                   -0.149123
    6          6                    0.108194
    7          6                    0.161643
    8          9                   -0.151367
    9          6                    0.160947
   10          9                   -0.142347
   11         16                    1.186205
   12          8                   -0.632044
   13          8                   -0.700256
   14          7                   -1.029634
   15          1                    0.393566
   16          9                   -0.126230
 -----------------------------------------------
    1   -1331.4221749848      3.31e-04  
         Merz-Kollman ESP Net Atomic Charges

     Atom                 Charge (a.u.)
  ----------------------------------------
      1 C                    -0.324270
      2 C                     0.264954
      3 F                    -0.158203
      4 C                     0.119700
      5 F                    -0.154428
      6 C                     0.132820
      7 C                     0.178198
      8 F                    -0.156720
      9 C                     0.160035
     10 F                    -0.144621
     11 S                     1.195654
     12 O                    -0.639984
     13 O                    -0.703825
     14 N                    -1.033553
     15 H                     0.397811
     16 F                    -0.133567
  ----------------------------------------
  Sum of atomic charges =    -1.000000

  Related Dipole Moment =    10.6140 (X  8.4316 Y -1.9626 Z -6.1412)


 Charges (in A.U.) from Merz-Kollman fitting 
 -----------------------------------------------
 Center     Atomic                  MZ       
 Number     Number                  Charge
 -----------------------------------------------
    1          6                   -0.324270
    2          6                    0.264954
    3          9                   -0.158203
    4          6                    0.119700
    5          9                   -0.154428
    6          6                    0.132820
    7          6                    0.178198
    8          9                   -0.156720
    9          6                    0.160035
   10          9                   -0.144621
   11         16                    1.195654
   12          8                   -0.639984
   13          8                   -0.703825
   14          7                   -1.033553
   15          1                    0.397811
   16          9                   -0.133567
 -----------------------------------------------
    2   -1331.4236071299      3.09e-04  
         Merz-Kollman ESP Net Atomic Charges

     Atom                 Charge (a.u.)
  ----------------------------------------
      1 C                    -0.319926
      2 C                     0.264550
      3 F                    -0.157537
      4 C                     0.118579
      5 F                    -0.153102
      6 C                     0.130879
      7 C                     0.176737
      8 F                    -0.155326
      9 C                     0.160251
     10 F                    -0.144109
     11 S                     1.191466
     12 O                    -0.638914
     13 O                    -0.704181
     14 N                    -1.036242
     15 H                     0.398423
     16 F                    -0.131547
  ----------------------------------------
  Sum of atomic charges =    -1.000000

  Related Dipole Moment =    10.6481 (X  8.4179 Y -1.9635 Z -6.2182)


 Charges (in A.U.) from Merz-Kollman fitting 
 -----------------------------------------------
 Center     Atomic                  MZ       
 Number     Number                  Charge
 -----------------------------------------------
    1          6                   -0.319926
    2          6                    0.264550
    3          9                   -0.157537
    4          6                    0.118579
    5          9                   -0.153102
    6          6                    0.130879
    7          6                    0.176737
    8          9                   -0.155326
    9          6                    0.160251
   10          9                   -0.144109
   11         16                    1.191466
   12          8                   -0.638914
   13          8                   -0.704181
   14          7                   -1.036242
   15          1                    0.398423
   16          9                   -0.131547
 -----------------------------------------------
    3   -1331.4221955446      4.63e-05  
         Merz-Kollman ESP Net Atomic Charges

     Atom                 Charge (a.u.)
  ----------------------------------------
      1 C                    -0.321511
      2 C                     0.265203
      3 F                    -0.157435
      4 C                     0.118238
      5 F                    -0.153113
      6 C                     0.132012
      7 C                     0.176331
      8 F                    -0.155325
      9 C                     0.161066
     10 F                    -0.144022
     11 S                     1.196749
     12 O                    -0.641058
     13 O                    -0.705996
     14 N                    -1.037476
     15 H                     0.398066
     16 F                    -0.131731
  ----------------------------------------
  Sum of atomic charges =    -1.000000

  Related Dipole Moment =    10.6617 (X  8.4202 Y -1.9601 Z -6.2394)


 Charges (in A.U.) from Merz-Kollman fitting 
 -----------------------------------------------
 Center     Atomic                  MZ       
 Number     Number                  Charge
 -----------------------------------------------
    1          6                   -0.321511
    2          6                    0.265203
    3          9                   -0.157435
    4          6                    0.118238
    5          9                   -0.153113
    6          6                    0.132012
    7          6                    0.176331
    8          9                   -0.155325
    9          6                    0.161066
   10          9                   -0.144022
   11         16                    1.196749
   12          8                   -0.641058
   13          8                   -0.705996
   14          7                   -1.037476
   15          1                    0.398066
   16          9                   -0.131731
 -----------------------------------------------
    4   -1331.4218317507      2.50e-05  
    5   -1331.4216800147      5.08e-06  Convergence criterion met
 ---------------------------------------
 SCF time:   CPU 114.49s  wall 7.00s 
(0)  E-EN(g) gas-phase elect-nuc energy                -1331.430325887 a.u.
(1)  E-EN(liq) elect-nuc energy of solute              -1331.421680015 a.u.
(2)  G-P(liq) polarization free energy of solvation           -66.1836 kcal/mol
(3)  G-ENP(liq) elect-nuc-pol free energy of system    -1331.527150262 a.u.
(4)  G-CDS(liq) cavity-dispersion-solvent structure 
     free energy                                                6.6937 kcal/mol
(5)  G-P-CDS(liq) = G-P(liq) + G-CDS(liq) = (2) + (4)         -59.4899 kcal/mol
(6)  G-S(liq) free energy of system = (1) + (5)        -1331.516483190 a.u.
(7)  DeltaE-EN(liq) elect-nuc reorganization
     energy of solute molecule (7) = (1) - (0)                  5.4254 kcal/mol
(8)  DeltaG-ENP(liq) elect-nuc-pol free energy
     of solvation (8) = (3) - (0)                             -60.7582 kcal/mol
(9)  DeltaG-S(liq) free energy of  solvation
     (9) = (6) - (0)                                          -54.0645 kcal/mol
 SCF   energy in the final basis set =    -1331.5164831903
 Total energy in the final basis set =    -1331.5164831903
 
 --------------------------------------------------------------
 
                    Orbital Energies (a.u.)
 --------------------------------------------------------------
 
 Alpha MOs
 -- Occupied --
-90.1529 -25.3246 -25.3207 -25.3195 -25.3165 -25.3097 -19.6331 -19.6324
-14.7366 -10.6916 -10.6886 -10.6874 -10.6849 -10.6840 -10.6156  -8.4644
 -6.3868  -6.3866  -6.3856  -1.4312  -1.4218  -1.4153  -1.4066  -1.4025
 -1.2262  -1.1101  -1.0305  -0.9844  -0.9097  -0.9003  -0.7930  -0.7763
 -0.7213  -0.7002  -0.6998  -0.6752  -0.6480  -0.6460  -0.6387  -0.6220
 -0.6126  -0.6027  -0.6013  -0.5847  -0.5814  -0.5684  -0.5606  -0.5574
 -0.5356  -0.5170  -0.5139  -0.4828  -0.4547  -0.4345  -0.4078  -0.3903
 -0.3773  -0.3490  -0.3425  -0.3286  -0.3124
 -- Virtual --
 -0.0308  -0.0152  -0.0070   0.0048   0.0061   0.0064   0.0227   0.0265
  0.0429   0.0545   0.0580   0.0618   0.0632   0.0763   0.0879   0.0938
  0.0961   0.0992   0.1145   0.1182   0.1248   0.1308   0.1381   0.1438
  0.1498   0.1510   0.1606   0.1671   0.1684   0.1776   0.1822   0.1880
  0.1940   0.2016   0.2075   0.2081   0.2181   0.2276   0.2369   0.2435
  0.2539   0.2598   0.2734   0.2775   0.2830   0.2898   0.2996   0.3053
  0.3077   0.3125   0.3270   0.3298   0.3361   0.3396   0.3502   0.3514
  0.3564   0.3736   0.3841   0.3863   0.3956   0.4015   0.4085   0.4138
  0.4184   0.4238   0.4276   0.4383   0.4514   0.4607   0.4735   0.4958
  0.5201   0.5381   0.5392   0.5505   0.5672   0.5890   0.6074   0.6287
  0.6574   0.6918   0.6964   0.7072   0.7178   0.7259   0.7324   0.7556
  0.7858   0.7940   0.8053   0.8420   0.8825   0.9372   0.9625   0.9877
  1.0018   1.0075   1.0327   1.0548   1.0748   1.0835   1.1113   1.1267
  1.1806   1.1854   1.2076   1.2144   1.2172   1.2279   1.2475   1.2639
  1.2872   1.2943   1.3042   1.3216   1.3320   1.3460   1.3578   1.3685
  1.3794   1.3925   1.3987   1.4227   1.4432   1.4722   1.4894   1.5309
  1.6084   1.6466   1.6528   1.6607   1.6757   1.6796   1.6930   1.6963
  1.7149   1.7221   1.7275   1.7401   1.7502   1.7548   1.7773   1.7865
  1.7953   1.7996   1.8106   1.8123   1.8177   1.8191   1.8267   1.8292
  1.8402   1.8458   1.8582   1.8682   1.8746   1.8767   1.8866   1.8909
  1.9028   1.9066   1.9161   1.9272   1.9288   1.9556   1.9703   1.9902
  2.0106   2.0260   2.0340   2.0710   2.1007   2.1088   2.1330   2.1749
  2.1788   2.1901   2.2189   2.2475   2.2693   2.2796   2.2962   2.2964
  2.3211   2.3562   2.3615   2.3627   2.3768   2.4003   2.4009   2.4255
  2.4448   2.4806   2.5172   2.5853   2.5944   2.6320   2.6503   2.6558
  2.7575   2.7607   2.8442   2.8870   2.9511   3.0325   3.0542   3.0925
  3.1850   3.2110   3.2664   3.3410   3.3667   3.4086   3.5904   3.9933
  4.0741   4.2297   4.2686   4.2718   4.3227   4.3379   4.5039   4.5384
  4.8938   5.3015   5.8731   6.4418   6.9326   7.8272
 --------------------------------------------------------------
 
          Ground-State Mulliken Net Atomic Charges

     Atom                 Charge (a.u.)
  ----------------------------------------
      1 C                    -2.798999
      2 C                    -0.498643
      3 F                    -0.355725
      4 C                     1.610721
      5 F                    -0.324188
      6 C                     1.667531
      7 C                     1.779756
      8 F                    -0.317591
      9 C                     0.463382
     10 F                    -0.369126
     11 S                     0.601147
     12 O                    -0.824722
     13 O                    -0.737903
     14 N                    -0.992180
     15 H                     0.416212
     16 F                    -0.319672
  ----------------------------------------
  Sum of atomic charges =    -1.000000

         Merz-Kollman ESP Net Atomic Charges

     Atom                 Charge (a.u.)
  ----------------------------------------
      1 C                    -0.322538
      2 C                     0.265598
      3 F                    -0.157414
      4 C                     0.117985
      5 F                    -0.152981
      6 C                     0.132209
      7 C                     0.176086
      8 F                    -0.155181
      9 C                     0.161320
     10 F                    -0.143986
     11 S                     1.197787
     12 O                    -0.641018
     13 O                    -0.706200
     14 N                    -1.038188
     15 H                     0.398123
     16 F                    -0.131603
  ----------------------------------------
  Sum of atomic charges =    -1.000000

  Related Dipole Moment =    10.6629 (X  8.4168 Y -1.9618 Z -6.2456)

 -----------------------------------------------------------------
                    Cartesian Multipole Moments
 -----------------------------------------------------------------
    Charge (ESU x 10^10)
                -4.8032
    Dipole Moment (Debye)
         X       8.4231      Y      -1.9986      Z      -6.3414
       Tot      10.7311
    Quadrupole Moments (Debye-Ang)
        XX    -117.6406     XY       6.0866     YY    -100.4048
        XZ      11.1155     YZ      -2.8802     ZZ    -113.0578
    Octopole Moments (Debye-Ang^2)
       XXX     468.1626    XXY     -80.3538    XYY     136.1223
       YYY    -190.6322    XXZ      99.3552    XYZ       2.4770
       YYZ      83.0411    XZZ     159.3400    YZZ     -84.8808
       ZZZ     343.6766
    Hexadecapole Moments (Debye-Ang^3)
      XXXX   -2426.4269   XXXY     374.3286   XXYY    -446.3318
      XYYY     302.1850   YYYY    -525.5740   XXXZ    -445.4529
      XXYZ     121.2606   XYYZ    -129.8590   YYYZ     276.4992
      XXZZ    -997.9085   XYZZ     143.2712   YYZZ    -632.4334
      XZZZ    -482.6204   YZZZ     355.6424   ZZZZ   -3467.2449
 -----------------------------------------------------------------
 Total job time:  18.75s(wall), 238.55s(cpu) 
 Thu May 26 10:29:25 2022

        *************************************************************
        *                                                           *
        *  Thank you very much for using Q-Chem.  Have a nice day.  *
        *                                                           *
        *************************************************************


