                  Welcome to Q-Chem
     A Quantum Leap Into The Future Of Chemistry


 Q-Chem 5.4 (devel), Q-Chem, Inc., Pleasanton, CA (2021)

 E. Epifanovsky,  A. T. B. Gilbert,  Xintian Feng,  Joonho Lee,  Yuezhi Mao,  
 N. Mardirossian,  P. Pokhilko,  A. White,  M. Wormit,  M. P. Coons,  
 A. L. Dempwolff,  Zhengting Gan,  D. Hait,  P. R. Horn,  L. D. Jacobson,  
 I. Kaliman,  J. Kussmann,  A. W. Lange,  Ka Un Lao,  D. S. Levine,  Jie Liu,  
 S. C. McKenzie,  A. F. Morrison,  K. Nanda,  F. Plasser,  D. R. Rehn,  
 M. L. Vidal,  Zhi-Qiang You,  Ying Zhu,  B. Alam,  B. Albrecht,  
 A. Aldossary,  E. Alguire,  J. H. Andersen,  D. Barton,  K. Begam,  A. Behn,  
 Y. A. Bernard,  E. J. Berquist,  H. Burton,  A. Carreras,  K. Carter-Fenk,  
 R. Chakraborty,  A. D. Chien,  K. D. Closser,  V. Cofer-Shabica,  
 S. Dasgupta,  Jia Deng,  M. de Wergifosse,  M. Diedenhofen,  Hainam Do,  
 S. Ehlert,  Po-Tung Fang,  S. Fatehi,  Qingguo Feng,  T. Friedhoff,  
 J. Gayvert,  Qinghui Ge,  G. Gidofalvi,  M. Goldey,  J. Gomes,  
 C. Gonzalez-Espinoza,  S. Gulania,  A. Gunina,  M. W. D. Hanson-Heine,  
 P. H. P. Harbach,  A. W. Hauser,  M. F. Herbst,  M. Hernandez Vera,  
 M. Hodecker,  Z. C. Holden,  S. Houck,  Xunkun Huang,  Kerwin Hui,  
 B. C. Huynh,  M. Ivanov,  Hyunjun Ji,  Hanjie Jiang,  B. Kaduk,  S. Kaehler,  
 K. Khistyaev,  Jaehoon Kim,  P. Klunzinger,  Z. Koczor-Benda,  
 Joong Hoon Koh,  D. Kosenkov,  L. Koulias,  T. Kowalczyk,  C. M. Krauter,  
 K. Kue,  A. Kunitsa,  T. Kus,  A. Landau,  K. V. Lawler,  D. Lefrancois,  
 S. Lehtola,  Rain Li,  Yi-Pei Li,  Jiashu Liang,  M. Liebenthal,  
 Hung-Hsuan Lin,  You-Sheng Lin,  Fenglai Liu,  Kuan-Yu Liu,  
 M. Loipersberger,  A. Luenser,  A. Manjanath,  P. Manohar,  E. Mansoor,  
 S. F. Manzer,  Shan-Ping Mao,  A. V. Marenich,  T. Markovich,  S. Mason,  
 S. A. Maurer,  P. F. McLaughlin,  M. F. S. J. Menger,  J.-M. Mewes,  
 S. A. Mewes,  P. Morgante,  J. W. Mullinax,  K. J. Oosterbaan,  G. Paran,  
 Alexander C. Paul,  Suranjan K. Paul,  F. Pavosevic,  Zheng Pei,  S. Prager,  
 E. I. Proynov,  E. Ramos,  B. Rana,  A. E. Rask,  A. Rettig,  R. M. Richard,  
 F. Rob,  E. Rossomme,  T. Scheele,  M. Scheurer,  M. Schneider,  
 N. Sergueev,  S. M. Sharada,  W. Skomorowski,  D. W. Small,  C. J. Stein,  
 Yu-Chuan Su,  E. J. Sundstrom,  Zhen Tao,  J. Thirman,  T. Tsuchimochi,  
 N. M. Tubman,  S. P. Veccham,  O. Vydrov,  J. Wenzel,  J. Witte,  A. Yamada,  
 Kun Yao,  S. Yeganeh,  S. R. Yost,  A. Zech,  Igor Ying Zhang,  Xing Zhang,  
 Yu Zhang,  D. Zuev,  A. Aspuru-Guzik,  A. T. Bell,  N. A. Besley,  
 K. B. Bravaya,  B. R. Brooks,  D. Casanova,  Jeng-Da Chai,  S. Coriani,  
 C. J. Cramer,  A. E. DePrince, III,  R. A. DiStasio Jr.,  A. Dreuw,  
 B. D. Dunietz,  T. R. Furlani,  W. A. Goddard III,  S. Grimme,  
 S. Hammes-Schiffer,  T. Head-Gordon,  W. J. Hehre,  Chao-Ping Hsu,  
 T.-C. Jagau,  Yousung Jung,  A. Klamt,  Jing Kong,  D. S. Lambrecht,  
 WanZhen Liang,  N. J. Mayhall,  C. W. McCurdy,  J. B. Neaton,  
 C. Ochsenfeld,  J. A. Parkhill,  R. Peverati,  V. A. Rassolov,  Yihan Shao,  
 L. V. Slipchenko,  T. Stauch,  R. P. Steele,  J. E. Subotnik,  
 A. J. W. Thom,  A. Tkatchenko,  D. G. Truhlar,  T. Van Voorhis,  
 T. A. Wesolowski,  K. B. Whaley,  H. L. Woodcock III,  P. M. Zimmerman,  
 S. Faraji,  P. M. W. Gill,  M. Head-Gordon,  J. M. Herbert,  A. I. Krylov

 Additional authors for Version 5.4.1: 
 S. Kotaru,  Shaozhi Li,  Xiangyuan Li,  F. Matz,  A. Molle,  Haisheng Ren,  
 Yingli Su,  Hung-Yi Tsai,  C. Utku,  Fang Wang

 Contributors to earlier versions of Q-Chem not listed above: 
 R. D. Adamson,  B. Austin,  R. Baer,  J. Baker,  G. J. O. Beran,  
 K. Brandhorst,  S. T. Brown,  E. F. C. Byrd,  A. K. Chakraborty,  
 G. K. L. Chan,  Chun-Min Chang,  Yunqing Chen,  C.-L. Cheng,  
 Siu Hung Chien,  D. M. Chipman,  D. L. Crittenden,  H. Dachsel,  
 R. J. Doerksen,  A. D. Dutoi,  R. G. Edgar,  J. Fosso-Tande,  
 L. Fusti-Molnar,  D. Ghosh,  A. Ghysels,  A. Golubeva-Zadorozhnaya,  
 J. Gonthier,  M. S. Gordon,  S. R. Gwaltney,  G. Hawkins,  J. E. Herr,  
 A. Heyden,  S. Hirata,  E. G. Hohenstein,  G. Kedziora,  F. J. Keil,  
 C. Kelley,  Jihan Kim,  R. A. King,  R. Z. Khaliullin,  P. P. Korambath,  
 W. Kurlancheek,  A. Laurent,  A. M. Lee,  M. S. Lee,  S. V. Levchenko,  
 Ching Yeh Lin,  D. Liotard,  E. Livshits,  R. C. Lochan,  I. Lotan,  
 L. A. Martinez-Martinez,  P. E. Maslen,  N. Nair,  D. P. O'Neill,  
 D. Neuhauser,  E. Neuscamman,  C. M. Oana,  R. Olivares-Amaya,  R. Olson,  
 T. M. Perrine,  B. Peters,  P. A. Pieniazek,  A. Prociuk,  Y. M. Rhee,  
 J. Ritchie,  M. A. Rohrdanz,  E. Rosta,  N. J. Russ,  H. F. Schaefer III,  
 M. W. Schmidt,  N. E. Schultz,  S. Sharma,  N. Shenvi,  C. D. Sherrill,  
 A. C. Simmonett,  A. Sodt,  T. Stein,  D. Stuck,  K. S. Thanthiriwatte,  
 V. Vanovschi,  L. Vogt,  Tao Wang,  A. Warshel,  M. A. Watson,  
 C. F. Williams,  Q. Wu,  X. Xu,  Jun Yang,  W. Zhang,  Yan Zhao

 Please cite Q-Chem as follows:
 Y. Shao et al., Mol. Phys. 113, 184-215 (2015)
 DOI: 10.1080/00268976.2014.952696

 Q-Chem 5.4.1 for Intel X86 EM64T Linux

 Parts of Q-Chem use Armadillo 9.800.1 (Horizon Scraper).
 http://arma.sourceforge.net/

 Q-Chem begins on Wed Jun 29 13:28:32 2022  

 Host: gadi-cpu-clx-0036.gadi.nci.org.au
0

     Scratch files written to /jobfs/48730549.gadi-pbs/qchem6977//
 Processing $rem in /apps/qchem/5.4.1/config/preferences:
 Processing $rem in /home/561/yj5695/.qchemrc:
 Symmetry turned off for PCM/SM12/SMD calculation
 Method-specific promolecule density matrix will be built for SM12 calculation

 Checking the input file for inconsistencies... 	...done.

--------------------------------------------------------------
User input:
--------------------------------------------------------------
$molecule
-1  1
C -1.3409757269  0.7814505762 -0.9404347824
C -2.5170197109  0.870112074 -1.6947130189
H -3.4867447242  0.8248891032 -1.206663215
C -2.4448323256  1.0207310371 -3.0694749712
H -3.3448524272  1.0932653108 -3.6728450329
C -1.1940287894  1.0843672845 -3.703125534
O -1.2241277974  1.2353031379 -5.0579203532
C -0.019696761  0.9959161106 -2.9541168021
H  0.955001788  1.0446612846 -3.4255366797
C -0.104395115  0.8409803509 -1.5672366216
H  0.8045224879  0.7690674042 -0.9771828355
S -1.4525717515  0.5448984379  0.837645124
O -2.4564048859  1.572804474  1.2633398413
O -1.9500553196 -0.8521282252  1.0104806201
N -0.044723837  0.6725433693  1.4973222825
H  0.2268541962  1.6590577856  1.4876163699
C  0.02428807  1.2972323073 -5.7415861993
H -0.2205505817  1.4131103358 -6.7968978453
H  0.5937373188  0.3741722489 -5.593170975
H  0.6106218924  2.1568325924 -5.4015713719
$end

$rem
jobtype sp
exchange M062X
basis 6-31+G*
SMX_GAS_PHASE = TRUE
solvent_method sm12
$end

$smx
solvent water
charges mk
$end
--------------------------------------------------------------
 ----------------------------------------------------------------
             Standard Nuclear Orientation (Angstroms)
    I     Atom           X                Y                Z
 ----------------------------------------------------------------
    1      C      -1.3409757269     0.7814505762    -0.9404347824
    2      C      -2.5170197109     0.8701120740    -1.6947130189
    3      H      -3.4867447242     0.8248891032    -1.2066632150
    4      C      -2.4448323256     1.0207310371    -3.0694749712
    5      H      -3.3448524272     1.0932653108    -3.6728450329
    6      C      -1.1940287894     1.0843672845    -3.7031255340
    7      O      -1.2241277974     1.2353031379    -5.0579203532
    8      C      -0.0196967610     0.9959161106    -2.9541168021
    9      H       0.9550017880     1.0446612846    -3.4255366797
   10      C      -0.1043951150     0.8409803509    -1.5672366216
   11      H       0.8045224879     0.7690674042    -0.9771828355
   12      S      -1.4525717515     0.5448984379     0.8376451240
   13      O      -2.4564048859     1.5728044740     1.2633398413
   14      O      -1.9500553196    -0.8521282252     1.0104806201
   15      N      -0.0447238370     0.6725433693     1.4973222825
   16      H       0.2268541962     1.6590577856     1.4876163699
   17      C       0.0242880700     1.2972323073    -5.7415861993
   18      H      -0.2205505817     1.4131103358    -6.7968978453
   19      H       0.5937373188     0.3741722489    -5.5931709750
   20      H       0.6106218924     2.1568325924    -5.4015713719
 ----------------------------------------------------------------
 Nuclear Repulsion Energy =         807.22938780 hartrees
 There are       49 alpha and       49 beta electrons
 Requested basis set is 6-31+G(d)
 There are 77 shells and 248 basis functions

 Total QAlloc Memory Limit   2000 MB
 Mega-Array Size       188 MB
 MEM_STATIC part       192 MB
 A cutoff of  1.0D-08 yielded   2327 shell pairs
 There are     25772 function pairs
 Smallest overlap matrix eigenvalue = 1.74E-06

 Q-Chem warning in module stvman/mkSTV.C, line 323:

 Overlap eigenvalue is smaller than square root of threshold
 Use THRESH >= 12 to get rid of this warning


 Scale SEOQF with 1.000000e-01/1.000000e-01/1.000000e-02

 Standard Electronic Orientation quadrupole field applied
 Nucleus-field energy     =     0.0000000071 hartrees
 ================ Generating on-the-fly Promolecule Density  ================
Attempting to make child job directory: /jobfs/48730549.gadi-pbs/qchem6977//Frg1/
Attempting to make child job directory: /jobfs/48730549.gadi-pbs/qchem6977//Frg2/
Attempting to make child job directory: /jobfs/48730549.gadi-pbs/qchem6977//Frg3/
Attempting to make child job directory: /jobfs/48730549.gadi-pbs/qchem6977//Frg4/
Attempting to make child job directory: /jobfs/48730549.gadi-pbs/qchem6977//Frg5/
Creating input file /jobfs/48730549.gadi-pbs/qchem6977/Frg1.input
using default PutDataFrgm: nothing
calling putenv with: QCSCRATCH=/jobfs/48730549.gadi-pbs/qchem6977/ 
Spawning Job For Fragment 0
Done Job For Fragment 0
calling putenv with: QCSCRATCH=/jobfs/48730549.gadi-pbs 
calling putenv with: QCTHREADS=8 
Creating input file /jobfs/48730549.gadi-pbs/qchem6977/Frg2.input
using default PutDataFrgm: nothing
calling putenv with: QCSCRATCH=/jobfs/48730549.gadi-pbs/qchem6977/ 
Spawning Job For Fragment 1
Done Job For Fragment 1
calling putenv with: QCSCRATCH=/jobfs/48730549.gadi-pbs 
calling putenv with: QCTHREADS=8 
Creating input file /jobfs/48730549.gadi-pbs/qchem6977/Frg3.input
using default PutDataFrgm: nothing
calling putenv with: QCSCRATCH=/jobfs/48730549.gadi-pbs/qchem6977/ 
Spawning Job For Fragment 2
Done Job For Fragment 2
calling putenv with: QCSCRATCH=/jobfs/48730549.gadi-pbs 
calling putenv with: QCTHREADS=8 
Creating input file /jobfs/48730549.gadi-pbs/qchem6977/Frg4.input
using default PutDataFrgm: nothing
calling putenv with: QCSCRATCH=/jobfs/48730549.gadi-pbs/qchem6977/ 
Spawning Job For Fragment 3
Done Job For Fragment 3
calling putenv with: QCSCRATCH=/jobfs/48730549.gadi-pbs 
calling putenv with: QCTHREADS=8 
Creating input file /jobfs/48730549.gadi-pbs/qchem6977/Frg5.input
using default PutDataFrgm: nothing
calling putenv with: QCSCRATCH=/jobfs/48730549.gadi-pbs/qchem6977/ 
Spawning Job For Fragment 4
Done Job For Fragment 4
calling putenv with: QCSCRATCH=/jobfs/48730549.gadi-pbs 
calling putenv with: QCTHREADS=8 
 Time for running child jobs:  CPU 1.01 s  wall 2.11 s
 ============= Method Specific Promolecule Density Constructed =============
 Guess from superposition of atomic densities
 Warning:  Energy on first SCF cycle will be non-variational
 SAD guess density has 97.000000 electrons

 -----------------------------------------------------------------------
  General SCF calculation program by
  Eric Jon Sundstrom, Paul Horn, Yuezhi Mao, Dmitri Zuev, Alec White,
  David Stuck, Shaama M.S., Shane Yost, Joonho Lee, David Small,
  Daniel Levine, Susi Lehtola, Hugh Burton, Evgeny Epifanovsky,
  Bang C. Huynh
 -----------------------------------------------------------------------
 Exchange:     0.5400 Hartree-Fock + 1.0000 M06-2X
 Correlation:  1.0000 M06-2X
 Using SG-3 standard quadrature grid
 using 8 threads for integral computing
 -------------------------------------------------------
 OpenMP Integral computing Module                
 Release: version 1.0, May 2013, Q-Chem Inc. Pittsburgh 
 -------------------------------------------------------
 A restricted SCF calculation will be
 performed using DIIS
 SCF converges when DIIS error is below 1.0e-05
 ---------------------------------------
  Cycle       Energy         DIIS error
 ---------------------------------------
    1    -953.3693311221      4.80e-02  
    2    -949.6055825625      6.42e-03  
    3    -949.5170281845      7.93e-03  
    4    -949.8774700776      9.02e-04  
    5    -949.8820150883      4.35e-04  
    6    -949.8833267227      1.11e-04  
    7    -949.8834192140      2.70e-05  
    8    -949.8834256817      8.50e-06  Convergence criterion met
 ---------------------------------------
 SCF time:   CPU 67.45s  wall 8.00s 
 SCF   energy in the final basis set =     -949.8834256817
 Total energy in the final basis set =     -949.8834256817
 Exchange:     0.5400 Hartree-Fock + 1.0000 M06-2X
 Correlation:  1.0000 M06-2X
 Using SG-3 standard quadrature grid
 
 SM12 calculation using Merz-Singh-Kollman charges
 Citation of the SM12 model:
 Marenich, A.V.; Cramer, C.J.; Truhlar, D.G.
 J. Chem. Theory Comput. 2013, 9, 609-612.
 iSolventCode=           1
 Solvent: water                                                           
 
  Building new vdw surfaces
         Merz-Kollman ESP Net Atomic Charges

     Atom                 Charge (a.u.)
  ----------------------------------------
      1 C                    -0.345626
      2 C                     0.130919
      3 H                     0.128542
      4 C                    -0.556101
      5 H                     0.191054
      6 C                     0.628040
      7 O                    -0.387134
      8 C                    -0.443152
      9 H                     0.162942
     10 C                     0.045842
     11 H                     0.113042
     12 S                     1.263251
     13 O                    -0.731020
     14 O                    -0.664581
     15 N                    -1.014343
     16 H                     0.343738
     17 C                    -0.205679
     18 H                     0.138540
     19 H                     0.105297
     20 H                     0.096429
  ----------------------------------------
  Sum of atomic charges =    -1.000000

  Related Dipole Moment =    10.7752 (X  8.8699 Y -0.8761 Z -6.0548)


 Charges (in A.U.) from Merz-Kollman fitting 
 -----------------------------------------------
 Center     Atomic                  MZ       
 Number     Number                  Charge
 -----------------------------------------------
    1          6                   -0.345626
    2          6                    0.130919
    3          1                    0.128542
    4          6                   -0.556101
    5          1                    0.191054
    6          6                    0.628040
    7          8                   -0.387134
    8          6                   -0.443152
    9          1                    0.162942
   10          6                    0.045842
   11          1                    0.113042
   12         16                    1.263251
   13          8                   -0.731020
   14          8                   -0.664581
   15          7                   -1.014343
   16          1                    0.343738
   17          6                   -0.205679
   18          1                    0.138540
   19          1                    0.105297
   20          1                    0.096429
 -----------------------------------------------
 A restricted SCF calculation will be
 performed using Roothaan-Hall, DIIS
 SCF converges when DIIS error is below 1.0e-05
 ---------------------------------------
  Cycle       Energy         DIIS error
 ---------------------------------------
         Merz-Kollman ESP Net Atomic Charges

     Atom                 Charge (a.u.)
  ----------------------------------------
      1 C                    -0.383568
      2 C                     0.083246
      3 H                     0.145061
      4 C                    -0.557005
      5 H                     0.213196
      6 C                     0.704389
      7 O                    -0.405008
      8 C                    -0.440173
      9 H                     0.194631
     10 C                     0.031990
     11 H                     0.129637
     12 S                     1.287258
     13 O                    -0.769957
     14 O                    -0.720831
     15 N                    -1.054815
     16 H                     0.370414
     17 C                    -0.222293
     18 H                     0.162704
     19 H                     0.120312
     20 H                     0.110810
  ----------------------------------------
  Sum of atomic charges =    -1.000000

  Related Dipole Moment =    13.3905 (X  9.8662 Y -0.2531 Z -9.0498)


 Charges (in A.U.) from Merz-Kollman fitting 
 -----------------------------------------------
 Center     Atomic                  MZ       
 Number     Number                  Charge
 -----------------------------------------------
    1          6                   -0.383568
    2          6                    0.083246
    3          1                    0.145061
    4          6                   -0.557005
    5          1                    0.213196
    6          6                    0.704389
    7          8                   -0.405008
    8          6                   -0.440173
    9          1                    0.194631
   10          6                    0.031990
   11          1                    0.129637
   12         16                    1.287258
   13          8                   -0.769957
   14          8                   -0.720831
   15          7                   -1.054815
   16          1                    0.370414
   17          6                   -0.222293
   18          1                    0.162704
   19          1                    0.120312
   20          1                    0.110810
 -----------------------------------------------
    1    -949.8834255897      6.55e-04  Roothaan Step
 ---------------------------------------
  Cycle       Energy         DIIS error
 ---------------------------------------
         Merz-Kollman ESP Net Atomic Charges

     Atom                 Charge (a.u.)
  ----------------------------------------
      1 C                    -0.337569
      2 C                     0.106442
      3 H                     0.140870
      4 C                    -0.582865
      5 H                     0.222480
      6 C                     0.693851
      7 O                    -0.396830
      8 C                    -0.497069
      9 H                     0.213070
     10 C                     0.036286
     11 H                     0.129119
     12 S                     1.323185
     13 O                    -0.789489
     14 O                    -0.725093
     15 N                    -1.078289
     16 H                     0.362060
     17 C                    -0.248240
     18 H                     0.178043
     19 H                     0.130664
     20 H                     0.119374
  ----------------------------------------
  Sum of atomic charges =    -1.000000

  Related Dipole Moment =    13.3827 (X  9.6634 Y -0.3774 Z -9.2505)


 Charges (in A.U.) from Merz-Kollman fitting 
 -----------------------------------------------
 Center     Atomic                  MZ       
 Number     Number                  Charge
 -----------------------------------------------
    1          6                   -0.337569
    2          6                    0.106442
    3          1                    0.140870
    4          6                   -0.582865
    5          1                    0.222480
    6          6                    0.693851
    7          8                   -0.396830
    8          6                   -0.497069
    9          1                    0.213070
   10          6                    0.036286
   11          1                    0.129119
   12         16                    1.323185
   13          8                   -0.789489
   14          8                   -0.725093
   15          7                   -1.078289
   16          1                    0.362060
   17          6                   -0.248240
   18          1                    0.178043
   19          1                    0.130664
   20          1                    0.119374
 -----------------------------------------------
    1    -949.8729537215      3.90e-04  
         Merz-Kollman ESP Net Atomic Charges

     Atom                 Charge (a.u.)
  ----------------------------------------
      1 C                    -0.377670
      2 C                     0.094806
      3 H                     0.143462
      4 C                    -0.574620
      5 H                     0.221187
      6 C                     0.717901
      7 O                    -0.403083
      8 C                    -0.477444
      9 H                     0.208728
     10 C                     0.042709
     11 H                     0.128880
     12 S                     1.329148
     13 O                    -0.789774
     14 O                    -0.736072
     15 N                    -1.075297
     16 H                     0.366021
     17 C                    -0.244339
     18 H                     0.176772
     19 H                     0.129578
     20 H                     0.119108
  ----------------------------------------
  Sum of atomic charges =    -1.000000

  Related Dipole Moment =    13.8001 (X  9.8820 Y -0.2367 Z -9.6297)


 Charges (in A.U.) from Merz-Kollman fitting 
 -----------------------------------------------
 Center     Atomic                  MZ       
 Number     Number                  Charge
 -----------------------------------------------
    1          6                   -0.377670
    2          6                    0.094806
    3          1                    0.143462
    4          6                   -0.574620
    5          1                    0.221187
    6          6                    0.717901
    7          8                   -0.403083
    8          6                   -0.477444
    9          1                    0.208728
   10          6                    0.042709
   11          1                    0.128880
   12         16                    1.329148
   13          8                   -0.789774
   14          8                   -0.736072
   15          7                   -1.075297
   16          1                    0.366021
   17          6                   -0.244339
   18          1                    0.176772
   19          1                    0.129578
   20          1                    0.119108
 -----------------------------------------------
    2    -949.8723675223      3.79e-04  
         Merz-Kollman ESP Net Atomic Charges

     Atom                 Charge (a.u.)
  ----------------------------------------
      1 C                    -0.374843
      2 C                     0.099507
      3 H                     0.143016
      4 C                    -0.579075
      5 H                     0.223038
      6 C                     0.719085
      7 O                    -0.402471
      8 C                    -0.483491
      9 H                     0.211485
     10 C                     0.043157
     11 H                     0.129592
     12 S                     1.328376
     13 O                    -0.792131
     14 O                    -0.735115
     15 N                    -1.081411
     16 H                     0.367213
     17 C                    -0.244975
     18 H                     0.178654
     19 H                     0.130529
     20 H                     0.119859
  ----------------------------------------
  Sum of atomic charges =    -1.000000

  Related Dipole Moment =    13.9015 (X  9.8721 Y -0.2369 Z -9.7846)


 Charges (in A.U.) from Merz-Kollman fitting 
 -----------------------------------------------
 Center     Atomic                  MZ       
 Number     Number                  Charge
 -----------------------------------------------
    1          6                   -0.374843
    2          6                    0.099507
    3          1                    0.143016
    4          6                   -0.579075
    5          1                    0.223038
    6          6                    0.719085
    7          8                   -0.402471
    8          6                   -0.483491
    9          1                    0.211485
   10          6                    0.043157
   11          1                    0.129592
   12         16                    1.328376
   13          8                   -0.792131
   14          8                   -0.735115
   15          7                   -1.081411
   16          1                    0.367213
   17          6                   -0.244975
   18          1                    0.178654
   19          1                    0.130529
   20          1                    0.119859
 -----------------------------------------------
    3    -949.8706876748      6.68e-05  
         Merz-Kollman ESP Net Atomic Charges

     Atom                 Charge (a.u.)
  ----------------------------------------
      1 C                    -0.377871
      2 C                     0.099393
      3 H                     0.143025
      4 C                    -0.579674
      5 H                     0.223384
      6 C                     0.721481
      7 O                    -0.402556
      8 C                    -0.485737
      9 H                     0.212123
     10 C                     0.045505
     11 H                     0.129218
     12 S                     1.333064
     13 O                    -0.793177
     14 O                    -0.737815
     15 N                    -1.081137
     16 H                     0.366313
     17 C                    -0.247104
     18 H                     0.179635
     19 H                     0.131283
     20 H                     0.120647
  ----------------------------------------
  Sum of atomic charges =    -1.000000

  Related Dipole Moment =    13.9390 (X  9.8886 Y -0.2253 Z -9.8214)


 Charges (in A.U.) from Merz-Kollman fitting 
 -----------------------------------------------
 Center     Atomic                  MZ       
 Number     Number                  Charge
 -----------------------------------------------
    1          6                   -0.377871
    2          6                    0.099393
    3          1                    0.143025
    4          6                   -0.579674
    5          1                    0.223384
    6          6                    0.721481
    7          8                   -0.402556
    8          6                   -0.485737
    9          1                    0.212123
   10          6                    0.045505
   11          1                    0.129218
   12         16                    1.333064
   13          8                   -0.793177
   14          8                   -0.737815
   15          7                   -1.081137
   16          1                    0.366313
   17          6                   -0.247104
   18          1                    0.179635
   19          1                    0.131283
   20          1                    0.120647
 -----------------------------------------------
    4    -949.8698143373      3.99e-05  
    5    -949.8695632590      6.70e-06  Convergence criterion met
 ---------------------------------------
 SCF time:   CPU 62.74s  wall 9.00s 
(0)  E-EN(g) gas-phase elect-nuc energy                 -949.883425682 a.u.
(1)  E-EN(liq) elect-nuc energy of solute               -949.869563259 a.u.
(2)  G-P(liq) polarization free energy of solvation           -83.9399 kcal/mol
(3)  G-ENP(liq) elect-nuc-pol free energy of system     -950.003330049 a.u.
(4)  G-CDS(liq) cavity-dispersion-solvent structure 
     free energy                                                3.1024 kcal/mol
(5)  G-P-CDS(liq) = G-P(liq) + G-CDS(liq) = (2) + (4)         -80.8375 kcal/mol
(6)  G-S(liq) free energy of system = (1) + (5)         -949.998386039 a.u.
(7)  DeltaE-EN(liq) elect-nuc reorganization
     energy of solute molecule (7) = (1) - (0)                  8.6988 kcal/mol
(8)  DeltaG-ENP(liq) elect-nuc-pol free energy
     of solvation (8) = (3) - (0)                             -75.2411 kcal/mol
(9)  DeltaG-S(liq) free energy of  solvation
     (9) = (6) - (0)                                          -72.1387 kcal/mol
 SCF   energy in the final basis set =     -949.9983860389
 Total energy in the final basis set =     -949.9983860389
 
 --------------------------------------------------------------
 
                    Orbital Energies (a.u.)
 --------------------------------------------------------------
 
 Alpha MOs
 -- Occupied --
-90.1357 -19.6912 -19.6243 -19.6231 -14.7303 -10.6350 -10.6035 -10.5825
-10.5787 -10.5782 -10.5714 -10.5698  -8.4489  -6.3713  -6.3705  -6.3701
 -1.2102  -1.2060  -1.0939  -0.9847  -0.9710  -0.8756  -0.8672  -0.8059
 -0.7290  -0.7111  -0.6682  -0.6286  -0.5957  -0.5768  -0.5571  -0.5537
 -0.5374  -0.5287  -0.5119  -0.4925  -0.4853  -0.4661  -0.4428  -0.4246
 -0.4159  -0.4076  -0.3963  -0.3775  -0.3609  -0.3377  -0.3284  -0.3119
 -0.2925
 -- Virtual --
 -0.0296  -0.0148  -0.0041  -0.0004   0.0008   0.0041   0.0102   0.0130
  0.0198   0.0388   0.0485   0.0503   0.0594   0.0699   0.0728   0.0840
  0.0905   0.0984   0.1068   0.1110   0.1130   0.1192   0.1227   0.1291
  0.1420   0.1443   0.1468   0.1541   0.1592   0.1651   0.1748   0.1820
  0.1886   0.1910   0.2027   0.2101   0.2227   0.2233   0.2277   0.2321
  0.2347   0.2412   0.2458   0.2558   0.2613   0.2631   0.2660   0.2715
  0.2777   0.2807   0.2937   0.2953   0.3035   0.3117   0.3165   0.3237
  0.3335   0.3364   0.3424   0.3443   0.3595   0.3635   0.3902   0.4071
  0.4186   0.4243   0.4354   0.4688   0.4952   0.5617   0.5938   0.6216
  0.6391   0.6711   0.6886   0.7024   0.7106   0.7165   0.7271   0.7279
  0.7370   0.7516   0.7648   0.7791   0.7905   0.8161   0.8179   0.8269
  0.9014   0.9244   0.9383   0.9536   0.9687   0.9810   0.9904   0.9999
  1.0060   1.0414   1.0585   1.0708   1.0809   1.0987   1.1168   1.1268
  1.1299   1.1629   1.1682   1.1781   1.2007   1.2132   1.2157   1.2340
  1.2687   1.2743   1.2889   1.3047   1.3337   1.3399   1.3452   1.3676
  1.3839   1.4041   1.4063   1.4132   1.4232   1.4600   1.4725   1.4859
  1.4973   1.5037   1.5369   1.5617   1.5737   1.5786   1.5898   1.6261
  1.7404   1.7862   1.8051   1.8151   1.8403   1.8568   1.8765   1.8948
  1.9113   1.9166   1.9452   1.9622   1.9794   1.9966   2.0169   2.0371
  2.0479   2.0670   2.1128   2.1398   2.1578   2.1623   2.1936   2.1971
  2.2054   2.2179   2.2382   2.2836   2.3154   2.3215   2.3390   2.3493
  2.3907   2.4241   2.4437   2.5675   2.5687   2.6112   2.6545   2.6690
  2.7034   2.7751   2.7918   2.8223   2.8496   2.8745   2.9156   2.9723
  3.0581   3.1890   3.4046   4.0256   4.0800   4.1055   4.2606   4.2822
  4.3035   4.3534   4.4044   4.4188   4.4898   4.5492   4.7928
 --------------------------------------------------------------
 
          Ground-State Mulliken Net Atomic Charges

     Atom                 Charge (a.u.)
  ----------------------------------------
      1 C                    -3.902040
      2 C                    -1.137200
      3 H                     0.242417
      4 C                     0.680648
      5 H                     0.275129
      6 C                     1.912209
      7 O                    -0.422243
      8 C                     4.167920
      9 H                     0.292760
     10 C                    -2.549630
     11 H                     0.269762
     12 S                     0.549781
     13 O                    -0.765649
     14 O                    -0.839080
     15 N                    -1.113380
     16 H                     0.417910
     17 C                     0.160389
     18 H                     0.262798
     19 H                     0.249745
     20 H                     0.247757
  ----------------------------------------
  Sum of atomic charges =    -1.000000

         Merz-Kollman ESP Net Atomic Charges

     Atom                 Charge (a.u.)
  ----------------------------------------
      1 C                    -0.378584
      2 C                     0.099634
      3 H                     0.142971
      4 C                    -0.579953
      5 H                     0.223388
      6 C                     0.722194
      7 O                    -0.402629
      8 C                    -0.486060
      9 H                     0.212107
     10 C                     0.046031
     11 H                     0.129107
     12 S                     1.334850
     13 O                    -0.793797
     14 O                    -0.738005
     15 N                    -1.082019
     16 H                     0.366279
     17 C                    -0.247526
     18 H                     0.179796
     19 H                     0.131434
     20 H                     0.120783
  ----------------------------------------
  Sum of atomic charges =    -1.000000

  Related Dipole Moment =    13.9446 (X  9.8874 Y -0.2273 Z -9.8306)

 -----------------------------------------------------------------
                    Cartesian Multipole Moments
 -----------------------------------------------------------------
    Charge (ESU x 10^10)
                -4.8032
    Dipole Moment (Debye)
         X       9.8362      Y      -0.2206      Z      -9.8784
       Tot      13.9421
    Quadrupole Moments (Debye-Ang)
        XX     -98.9002     XY       6.8234     YY     -90.1103
        XZ       3.9378     YZ      -4.9661     ZZ     -79.0067
    Octopole Moments (Debye-Ang^2)
       XXX     324.0308    XXY     -78.2657    XYY     127.7350
       YYY    -210.2074    XXZ      81.8165    XYZ       0.1084
       YYZ     109.0109    XZZ     152.2592    YZZ     -50.8701
       ZZZ     229.4502
    Hexadecapole Moments (Debye-Ang^3)
      XXXX   -1322.5526   XXXY     246.5555   XXYY    -377.1660
      XYYY     265.1822   YYYY    -616.2218   XXXZ    -142.9822
      XXYZ     121.3280   XYYZ     -78.7930   YYYZ     449.5982
      XXZZ    -935.7593   XYZZ     136.7821   YYZZ    -763.2041
      XZZZ    -456.3051   YZZZ     295.0198   ZZZZ   -3358.8443
 -----------------------------------------------------------------
 Total job time:  19.49s(wall), 134.20s(cpu) 
 Wed Jun 29 13:28:52 2022

        *************************************************************
        *                                                           *
        *  Thank you very much for using Q-Chem.  Have a nice day.  *
        *                                                           *
        *************************************************************


