                  Welcome to Q-Chem
     A Quantum Leap Into The Future Of Chemistry


 Q-Chem 5.4 (devel), Q-Chem, Inc., Pleasanton, CA (2021)

 E. Epifanovsky,  A. T. B. Gilbert,  Xintian Feng,  Joonho Lee,  Yuezhi Mao,  
 N. Mardirossian,  P. Pokhilko,  A. White,  M. Wormit,  M. P. Coons,  
 A. L. Dempwolff,  Zhengting Gan,  D. Hait,  P. R. Horn,  L. D. Jacobson,  
 I. Kaliman,  J. Kussmann,  A. W. Lange,  Ka Un Lao,  D. S. Levine,  Jie Liu,  
 S. C. McKenzie,  A. F. Morrison,  K. Nanda,  F. Plasser,  D. R. Rehn,  
 M. L. Vidal,  Zhi-Qiang You,  Ying Zhu,  B. Alam,  B. Albrecht,  
 A. Aldossary,  E. Alguire,  J. H. Andersen,  D. Barton,  K. Begam,  A. Behn,  
 Y. A. Bernard,  E. J. Berquist,  H. Burton,  A. Carreras,  K. Carter-Fenk,  
 R. Chakraborty,  A. D. Chien,  K. D. Closser,  V. Cofer-Shabica,  
 S. Dasgupta,  Jia Deng,  M. de Wergifosse,  M. Diedenhofen,  Hainam Do,  
 S. Ehlert,  Po-Tung Fang,  S. Fatehi,  Qingguo Feng,  T. Friedhoff,  
 J. Gayvert,  Qinghui Ge,  G. Gidofalvi,  M. Goldey,  J. Gomes,  
 C. Gonzalez-Espinoza,  S. Gulania,  A. Gunina,  M. W. D. Hanson-Heine,  
 P. H. P. Harbach,  A. W. Hauser,  M. F. Herbst,  M. Hernandez Vera,  
 M. Hodecker,  Z. C. Holden,  S. Houck,  Xunkun Huang,  Kerwin Hui,  
 B. C. Huynh,  M. Ivanov,  Hyunjun Ji,  Hanjie Jiang,  B. Kaduk,  S. Kaehler,  
 K. Khistyaev,  Jaehoon Kim,  P. Klunzinger,  Z. Koczor-Benda,  
 Joong Hoon Koh,  D. Kosenkov,  L. Koulias,  T. Kowalczyk,  C. M. Krauter,  
 K. Kue,  A. Kunitsa,  T. Kus,  A. Landau,  K. V. Lawler,  D. Lefrancois,  
 S. Lehtola,  Rain Li,  Yi-Pei Li,  Jiashu Liang,  M. Liebenthal,  
 Hung-Hsuan Lin,  You-Sheng Lin,  Fenglai Liu,  Kuan-Yu Liu,  
 M. Loipersberger,  A. Luenser,  A. Manjanath,  P. Manohar,  E. Mansoor,  
 S. F. Manzer,  Shan-Ping Mao,  A. V. Marenich,  T. Markovich,  S. Mason,  
 S. A. Maurer,  P. F. McLaughlin,  M. F. S. J. Menger,  J.-M. Mewes,  
 S. A. Mewes,  P. Morgante,  J. W. Mullinax,  K. J. Oosterbaan,  G. Paran,  
 Alexander C. Paul,  Suranjan K. Paul,  F. Pavosevic,  Zheng Pei,  S. Prager,  
 E. I. Proynov,  E. Ramos,  B. Rana,  A. E. Rask,  A. Rettig,  R. M. Richard,  
 F. Rob,  E. Rossomme,  T. Scheele,  M. Scheurer,  M. Schneider,  
 N. Sergueev,  S. M. Sharada,  W. Skomorowski,  D. W. Small,  C. J. Stein,  
 Yu-Chuan Su,  E. J. Sundstrom,  Zhen Tao,  J. Thirman,  T. Tsuchimochi,  
 N. M. Tubman,  S. P. Veccham,  O. Vydrov,  J. Wenzel,  J. Witte,  A. Yamada,  
 Kun Yao,  S. Yeganeh,  S. R. Yost,  A. Zech,  Igor Ying Zhang,  Xing Zhang,  
 Yu Zhang,  D. Zuev,  A. Aspuru-Guzik,  A. T. Bell,  N. A. Besley,  
 K. B. Bravaya,  B. R. Brooks,  D. Casanova,  Jeng-Da Chai,  S. Coriani,  
 C. J. Cramer,  A. E. DePrince, III,  R. A. DiStasio Jr.,  A. Dreuw,  
 B. D. Dunietz,  T. R. Furlani,  W. A. Goddard III,  S. Grimme,  
 S. Hammes-Schiffer,  T. Head-Gordon,  W. J. Hehre,  Chao-Ping Hsu,  
 T.-C. Jagau,  Yousung Jung,  A. Klamt,  Jing Kong,  D. S. Lambrecht,  
 WanZhen Liang,  N. J. Mayhall,  C. W. McCurdy,  J. B. Neaton,  
 C. Ochsenfeld,  J. A. Parkhill,  R. Peverati,  V. A. Rassolov,  Yihan Shao,  
 L. V. Slipchenko,  T. Stauch,  R. P. Steele,  J. E. Subotnik,  
 A. J. W. Thom,  A. Tkatchenko,  D. G. Truhlar,  T. Van Voorhis,  
 T. A. Wesolowski,  K. B. Whaley,  H. L. Woodcock III,  P. M. Zimmerman,  
 S. Faraji,  P. M. W. Gill,  M. Head-Gordon,  J. M. Herbert,  A. I. Krylov

 Additional authors for Version 5.4.1: 
 S. Kotaru,  Shaozhi Li,  Xiangyuan Li,  F. Matz,  A. Molle,  Haisheng Ren,  
 Yingli Su,  Hung-Yi Tsai,  C. Utku,  Fang Wang

 Contributors to earlier versions of Q-Chem not listed above: 
 R. D. Adamson,  B. Austin,  R. Baer,  J. Baker,  G. J. O. Beran,  
 K. Brandhorst,  S. T. Brown,  E. F. C. Byrd,  A. K. Chakraborty,  
 G. K. L. Chan,  Chun-Min Chang,  Yunqing Chen,  C.-L. Cheng,  
 Siu Hung Chien,  D. M. Chipman,  D. L. Crittenden,  H. Dachsel,  
 R. J. Doerksen,  A. D. Dutoi,  R. G. Edgar,  J. Fosso-Tande,  
 L. Fusti-Molnar,  D. Ghosh,  A. Ghysels,  A. Golubeva-Zadorozhnaya,  
 J. Gonthier,  M. S. Gordon,  S. R. Gwaltney,  G. Hawkins,  J. E. Herr,  
 A. Heyden,  S. Hirata,  E. G. Hohenstein,  G. Kedziora,  F. J. Keil,  
 C. Kelley,  Jihan Kim,  R. A. King,  R. Z. Khaliullin,  P. P. Korambath,  
 W. Kurlancheek,  A. Laurent,  A. M. Lee,  M. S. Lee,  S. V. Levchenko,  
 Ching Yeh Lin,  D. Liotard,  E. Livshits,  R. C. Lochan,  I. Lotan,  
 L. A. Martinez-Martinez,  P. E. Maslen,  N. Nair,  D. P. O'Neill,  
 D. Neuhauser,  E. Neuscamman,  C. M. Oana,  R. Olivares-Amaya,  R. Olson,  
 T. M. Perrine,  B. Peters,  P. A. Pieniazek,  A. Prociuk,  Y. M. Rhee,  
 J. Ritchie,  M. A. Rohrdanz,  E. Rosta,  N. J. Russ,  H. F. Schaefer III,  
 M. W. Schmidt,  N. E. Schultz,  S. Sharma,  N. Shenvi,  C. D. Sherrill,  
 A. C. Simmonett,  A. Sodt,  T. Stein,  D. Stuck,  K. S. Thanthiriwatte,  
 V. Vanovschi,  L. Vogt,  Tao Wang,  A. Warshel,  M. A. Watson,  
 C. F. Williams,  Q. Wu,  X. Xu,  Jun Yang,  W. Zhang,  Yan Zhao

 Please cite Q-Chem as follows:
 Y. Shao et al., Mol. Phys. 113, 184-215 (2015)
 DOI: 10.1080/00268976.2014.952696

 Q-Chem 5.4.1 for Intel X86 EM64T Linux

 Parts of Q-Chem use Armadillo 9.800.1 (Horizon Scraper).
 http://arma.sourceforge.net/

 Q-Chem begins on Fri May 20 21:01:01 2022  

 Host: gadi-cpu-clx-0948.gadi.nci.org.au
0

     Scratch files written to /jobfs/40772251.gadi-pbs/qchem1049232//
 Processing $rem in /apps/qchem/5.4.1/config/preferences:
 Processing $rem in /home/561/yj5695/.qchemrc:
 Symmetry turned off for PCM/SM12/SMD calculation
 Method-specific promolecule density matrix will be built for SM12 calculation

 Checking the input file for inconsistencies... 	...done.

--------------------------------------------------------------
User input:
--------------------------------------------------------------
$molecule
0  1
S -1.7369196624  0.3578122535  1.2639247195
O -0.6345629202  0.8353224367  2.1040361713
O -3.0292368894  1.0448011667  1.3471139175
N -2.0147958419 -1.206769225  1.710618126
H -1.165980337 -1.7738080284  1.6704073609
C -1.2008238044  0.3728001455 -0.4282896927
H -0.2809684511 -0.2104260805 -0.5016453018
H -1.0222275826  1.4149301831 -0.7047384183
H -1.9923235633 -0.0606777916 -1.0424503012
H -2.7637919478 -1.6348420598  1.1634794189
$end

$rem
jobtype sp
exchange M062X
basis 6-31+G*
xc_grid 1
SMX_GAS_PHASE = TRUE
solvent_method sm12
$end

$smx
solvent water
charges mk
$end
--------------------------------------------------------------
 ----------------------------------------------------------------
             Standard Nuclear Orientation (Angstroms)
    I     Atom           X                Y                Z
 ----------------------------------------------------------------
    1      S      -1.7369196624     0.3578122535     1.2639247195
    2      O      -0.6345629202     0.8353224367     2.1040361713
    3      O      -3.0292368894     1.0448011667     1.3471139175
    4      N      -2.0147958419    -1.2067692250     1.7106181260
    5      H      -1.1659803370    -1.7738080284     1.6704073609
    6      C      -1.2008238044     0.3728001455    -0.4282896927
    7      H      -0.2809684511    -0.2104260805    -0.5016453018
    8      H      -1.0222275826     1.4149301831    -0.7047384183
    9      H      -1.9923235633    -0.0606777916    -1.0424503012
   10      H      -2.7637919478    -1.6348420598     1.1634794189
 ----------------------------------------------------------------
 Nuclear Repulsion Energy =         277.39505754 hartrees
 There are       25 alpha and       25 beta electrons
 Requested basis set is 6-31+G(d)
 There are 36 shells and 109 basis functions

 Total QAlloc Memory Limit   2000 MB
 Mega-Array Size       188 MB
 MEM_STATIC part       192 MB

                       Distance Matrix (Angstroms)
             S (  1)   O (  2)   O (  3)   N (  4)   H (  5)   C (  6)
   O (  2)  1.465945
   O (  3)  1.465932  2.520174
   N (  4)  1.650656  2.495989  2.496156
   H (  5)  2.243882  2.697777  3.394231  1.021586
   C (  6)  1.775166  2.635764  2.635666  2.780740  3.002277
   H (  7)  2.357950  2.829875  3.542102  2.982108  2.818727  1.091635
   H (  8)  2.346043  2.894036  2.893990  3.700331  3.978697  1.092866
   H (  9)  2.357908  3.542133  2.829716  2.982183  3.313194  1.091590
   H ( 10)  2.243931  3.394109  2.699013  1.021569  1.682049  3.001204
             H (  7)   H (  8)   H (  9)
   H (  8)  1.797914
   H (  9)  1.801008  1.797931
   H ( 10)  3.311497  3.977989  2.817673
 
 A cutoff of  1.0D-08 yielded    638 shell pairs
 There are      6115 function pairs
 Smallest overlap matrix eigenvalue = 4.53E-04

 Scale SEOQF with 1.000000e-01/1.000000e-01/1.000000e-01

 Standard Electronic Orientation quadrupole field applied
 Nucleus-field energy     =    -0.0000000022 hartrees
 ================ Generating on-the-fly Promolecule Density  ================
Attempting to make child job directory: /jobfs/40772251.gadi-pbs/qchem1049232//Frg1/
Attempting to make child job directory: /jobfs/40772251.gadi-pbs/qchem1049232//Frg2/
Attempting to make child job directory: /jobfs/40772251.gadi-pbs/qchem1049232//Frg3/
Attempting to make child job directory: /jobfs/40772251.gadi-pbs/qchem1049232//Frg4/
Attempting to make child job directory: /jobfs/40772251.gadi-pbs/qchem1049232//Frg5/
Creating input file /jobfs/40772251.gadi-pbs/qchem1049232/Frg1.input
using default PutDataFrgm: nothing
calling putenv with: QCSCRATCH=/jobfs/40772251.gadi-pbs/qchem1049232/ 
Spawning Job For Fragment 0
Done Job For Fragment 0
calling putenv with: QCSCRATCH=/jobfs/40772251.gadi-pbs 
calling putenv with: QCTHREADS=16 
Creating input file /jobfs/40772251.gadi-pbs/qchem1049232/Frg2.input
using default PutDataFrgm: nothing
calling putenv with: QCSCRATCH=/jobfs/40772251.gadi-pbs/qchem1049232/ 
Spawning Job For Fragment 1
Done Job For Fragment 1
calling putenv with: QCSCRATCH=/jobfs/40772251.gadi-pbs 
calling putenv with: QCTHREADS=16 
Creating input file /jobfs/40772251.gadi-pbs/qchem1049232/Frg3.input
using default PutDataFrgm: nothing
calling putenv with: QCSCRATCH=/jobfs/40772251.gadi-pbs/qchem1049232/ 
Spawning Job For Fragment 2
Done Job For Fragment 2
calling putenv with: QCSCRATCH=/jobfs/40772251.gadi-pbs 
calling putenv with: QCTHREADS=16 
Creating input file /jobfs/40772251.gadi-pbs/qchem1049232/Frg4.input
using default PutDataFrgm: nothing
calling putenv with: QCSCRATCH=/jobfs/40772251.gadi-pbs/qchem1049232/ 
Spawning Job For Fragment 3
Done Job For Fragment 3
calling putenv with: QCSCRATCH=/jobfs/40772251.gadi-pbs 
calling putenv with: QCTHREADS=16 
Creating input file /jobfs/40772251.gadi-pbs/qchem1049232/Frg5.input
using default PutDataFrgm: nothing
calling putenv with: QCSCRATCH=/jobfs/40772251.gadi-pbs/qchem1049232/ 
Spawning Job For Fragment 4
Done Job For Fragment 4
calling putenv with: QCSCRATCH=/jobfs/40772251.gadi-pbs 
calling putenv with: QCTHREADS=16 
 Time for running child jobs:  CPU 2.31 s  wall 1.98 s
 ============= Method Specific Promolecule Density Constructed =============
 Guess from superposition of atomic densities
 Warning:  Energy on first SCF cycle will be non-variational
 SAD guess density has 50.000000 electrons

 -----------------------------------------------------------------------
  General SCF calculation program by
  Eric Jon Sundstrom, Paul Horn, Yuezhi Mao, Dmitri Zuev, Alec White,
  David Stuck, Shaama M.S., Shane Yost, Joonho Lee, David Small,
  Daniel Levine, Susi Lehtola, Hugh Burton, Evgeny Epifanovsky,
  Bang C. Huynh
 -----------------------------------------------------------------------
 Exchange:     0.5400 Hartree-Fock + 1.0000 M06-2X
 Correlation:  1.0000 M06-2X
 Using SG-1 standard quadrature grid
 using 16 threads for integral computing
 -------------------------------------------------------
 OpenMP Integral computing Module                
 Release: version 1.0, May 2013, Q-Chem Inc. Pittsburgh 
 -------------------------------------------------------
 A restricted SCF calculation will be
 performed using DIIS
 SCF converges when DIIS error is below 1.0e-05
 ---------------------------------------
  Cycle       Energy         DIIS error
 ---------------------------------------
    1    -645.7093838379      7.64e-02  
    2    -644.0995398503      1.28e-02  
    3    -643.9582762128      1.76e-02  
    4    -644.2962651099      1.65e-03  
    5    -644.2994013519      5.41e-04  
    6    -644.2997599464      1.19e-04  
    7    -644.2997780314      3.29e-05  
    8    -644.2997798092      4.65e-06  Convergence criterion met
 ---------------------------------------
 SCF time:   CPU 9.60s  wall 1.00s 
 SCF   energy in the final basis set =     -644.2997798092
 Total energy in the final basis set =     -644.2997798092
 Exchange:     0.5400 Hartree-Fock + 1.0000 M06-2X
 Correlation:  1.0000 M06-2X
 Using SG-1 standard quadrature grid
 
 SM12 calculation using Merz-Singh-Kollman charges
 Citation of the SM12 model:
 Marenich, A.V.; Cramer, C.J.; Truhlar, D.G.
 J. Chem. Theory Comput. 2013, 9, 609-612.
 iSolventCode=           1
 Solvent: water                                                           
 
  Building new vdw surfaces
         Merz-Kollman ESP Net Atomic Charges

     Atom                 Charge (a.u.)
  ----------------------------------------
      1 S                     1.124649
      2 O                    -0.516802
      3 O                    -0.515470
      4 N                    -0.841123
      5 H                     0.396804
      6 C                    -0.902029
      7 H                     0.270353
      8 H                     0.318717
      9 H                     0.270469
     10 H                     0.394431
  ----------------------------------------
  Sum of atomic charges =     0.000000

  Related Dipole Moment =     6.1873 (X  1.0589 Y -4.1313 Z -4.4826)


 Charges (in A.U.) from Merz-Kollman fitting 
 -----------------------------------------------
 Center     Atomic                  MZ       
 Number     Number                  Charge
 -----------------------------------------------
    1         16                    1.124649
    2          8                   -0.516802
    3          8                   -0.515470
    4          7                   -0.841123
    5          1                    0.396804
    6          6                   -0.902029
    7          1                    0.270353
    8          1                    0.318717
    9          1                    0.270469
   10          1                    0.394431
 -----------------------------------------------
 A restricted SCF calculation will be
 performed using Roothaan-Hall, DIIS
 SCF converges when DIIS error is below 1.0e-05
 ---------------------------------------
  Cycle       Energy         DIIS error
 ---------------------------------------
         Merz-Kollman ESP Net Atomic Charges

     Atom                 Charge (a.u.)
  ----------------------------------------
      1 S                     1.157579
      2 O                    -0.583931
      3 O                    -0.582529
      4 N                    -0.826324
      5 H                     0.413359
      6 C                    -0.908348
      7 H                     0.293105
      8 H                     0.333236
      9 H                     0.293134
     10 H                     0.410719
  ----------------------------------------
  Sum of atomic charges =     0.000000

  Related Dipole Moment =     7.3412 (X  1.2299 Y -4.9775 Z -5.2540)


 Charges (in A.U.) from Merz-Kollman fitting 
 -----------------------------------------------
 Center     Atomic                  MZ       
 Number     Number                  Charge
 -----------------------------------------------
    1         16                    1.157579
    2          8                   -0.583931
    3          8                   -0.582529
    4          7                   -0.826324
    5          1                    0.413359
    6          6                   -0.908348
    7          1                    0.293105
    8          1                    0.333236
    9          1                    0.293134
   10          1                    0.410719
 -----------------------------------------------
    1    -644.2997795063      1.22e-03  Roothaan Step
 ---------------------------------------
  Cycle       Energy         DIIS error
 ---------------------------------------
         Merz-Kollman ESP Net Atomic Charges

     Atom                 Charge (a.u.)
  ----------------------------------------
      1 S                     1.108199
      2 O                    -0.552736
      3 O                    -0.551237
      4 N                    -0.825111
      5 H                     0.412080
      6 C                    -0.972151
      7 H                     0.309069
      8 H                     0.353487
      9 H                     0.309038
     10 H                     0.409361
  ----------------------------------------
  Sum of atomic charges =     0.000000

  Related Dipole Moment =     7.0802 (X  1.1997 Y -4.7630 Z -5.0993)


 Charges (in A.U.) from Merz-Kollman fitting 
 -----------------------------------------------
 Center     Atomic                  MZ       
 Number     Number                  Charge
 -----------------------------------------------
    1         16                    1.108199
    2          8                   -0.552736
    3          8                   -0.551237
    4          7                   -0.825111
    5          1                    0.412080
    6          6                   -0.972151
    7          1                    0.309069
    8          1                    0.353487
    9          1                    0.309038
   10          1                    0.409361
 -----------------------------------------------
    1    -644.2930613983      9.39e-04  
         Merz-Kollman ESP Net Atomic Charges

     Atom                 Charge (a.u.)
  ----------------------------------------
      1 S                     1.154427
      2 O                    -0.579851
      3 O                    -0.578357
      4 N                    -0.823304
      5 H                     0.412208
      6 C                    -0.952331
      7 H                     0.305066
      8 H                     0.347644
      9 H                     0.305019
     10 H                     0.409481
  ----------------------------------------
  Sum of atomic charges =     0.000000

  Related Dipole Moment =     7.3078 (X  1.2298 Y -4.9400 Z -5.2429)


 Charges (in A.U.) from Merz-Kollman fitting 
 -----------------------------------------------
 Center     Atomic                  MZ       
 Number     Number                  Charge
 -----------------------------------------------
    1         16                    1.154427
    2          8                   -0.579851
    3          8                   -0.578357
    4          7                   -0.823304
    5          1                    0.412208
    6          6                   -0.952331
    7          1                    0.305066
    8          1                    0.347644
    9          1                    0.305019
   10          1                    0.409481
 -----------------------------------------------
    2    -644.2943975201      1.17e-03  
         Merz-Kollman ESP Net Atomic Charges

     Atom                 Charge (a.u.)
  ----------------------------------------
      1 S                     1.143721
      2 O                    -0.577573
      3 O                    -0.576060
      4 N                    -0.822397
      5 H                     0.412952
      6 C                    -0.952247
      7 H                     0.306210
      8 H                     0.349033
      9 H                     0.306148
     10 H                     0.410212
  ----------------------------------------
  Sum of atomic charges =     0.000000

  Related Dipole Moment =     7.3300 (X  1.2364 Y -4.9470 Z -5.2658)


 Charges (in A.U.) from Merz-Kollman fitting 
 -----------------------------------------------
 Center     Atomic                  MZ       
 Number     Number                  Charge
 -----------------------------------------------
    1         16                    1.143721
    2          8                   -0.577573
    3          8                   -0.576060
    4          7                   -0.822397
    5          1                    0.412952
    6          6                   -0.952247
    7          1                    0.306210
    8          1                    0.349033
    9          1                    0.306148
   10          1                    0.410212
 -----------------------------------------------
    3    -644.2937670148      8.48e-05  
         Merz-Kollman ESP Net Atomic Charges

     Atom                 Charge (a.u.)
  ----------------------------------------
      1 S                     1.147812
      2 O                    -0.578899
      3 O                    -0.577376
      4 N                    -0.821854
      5 H                     0.412566
      6 C                    -0.956076
      7 H                     0.307082
      8 H                     0.349907
      9 H                     0.307019
     10 H                     0.409819
  ----------------------------------------
  Sum of atomic charges =     0.000000

  Related Dipole Moment =     7.3321 (X  1.2359 Y -4.9507 Z -5.2652)


 Charges (in A.U.) from Merz-Kollman fitting 
 -----------------------------------------------
 Center     Atomic                  MZ       
 Number     Number                  Charge
 -----------------------------------------------
    1         16                    1.147812
    2          8                   -0.578899
    3          8                   -0.577376
    4          7                   -0.821854
    5          1                    0.412566
    6          6                   -0.956076
    7          1                    0.307082
    8          1                    0.349907
    9          1                    0.307019
   10          1                    0.409819
 -----------------------------------------------
    4    -644.2935603408      4.02e-05  
    5    -644.2935089523      5.49e-06  Convergence criterion met
 ---------------------------------------
 SCF time:   CPU 14.41s  wall 1.00s 
(0)  E-EN(g) gas-phase elect-nuc energy                 -644.299779809 a.u.
(1)  E-EN(liq) elect-nuc energy of solute               -644.293508952 a.u.
(2)  G-P(liq) polarization free energy of solvation           -21.9470 kcal/mol
(3)  G-ENP(liq) elect-nuc-pol free energy of system     -644.328483686 a.u.
(4)  G-CDS(liq) cavity-dispersion-solvent structure 
     free energy                                                3.2728 kcal/mol
(5)  G-P-CDS(liq) = G-P(liq) + G-CDS(liq) = (2) + (4)         -18.6742 kcal/mol
(6)  G-S(liq) free energy of system = (1) + (5)         -644.323268209 a.u.
(7)  DeltaE-EN(liq) elect-nuc reorganization
     energy of solute molecule (7) = (1) - (0)                  3.9350 kcal/mol
(8)  DeltaG-ENP(liq) elect-nuc-pol free energy
     of solvation (8) = (3) - (0)                             -18.0120 kcal/mol
(9)  DeltaG-S(liq) free energy of  solvation
     (9) = (6) - (0)                                          -14.7392 kcal/mol
 SCF   energy in the final basis set =     -644.3232682086
 Total energy in the final basis set =     -644.3232682086
 
 --------------------------------------------------------------
 
                    Orbital Energies (a.u.)
 --------------------------------------------------------------
 
 Alpha MOs
 -- Occupied --
-90.1733 -19.6532 -19.6531 -14.8033 -10.5876  -8.4831  -6.4050  -6.4045
 -6.4035  -1.2536  -1.1389  -1.0325  -0.8745  -0.7221  -0.6173  -0.6166
 -0.5782  -0.5454  -0.5079  -0.5023  -0.4327  -0.4148  -0.3944  -0.3942
 -0.3785
 -- Virtual --
 -0.0060   0.0399   0.0483   0.0623   0.0648   0.0826   0.0828   0.0941
  0.1147   0.1258   0.1464   0.1666   0.1690   0.1719   0.1756   0.2014
  0.2045   0.2184   0.2333   0.2444   0.2626   0.2853   0.2908   0.3011
  0.3067   0.3115   0.3380   0.3488   0.3557   0.5308   0.5746   0.6136
  0.6379   0.6504   0.6822   0.7643   0.8048   0.8092   0.9104   0.9922
  0.9976   1.0179   1.0229   1.0251   1.1056   1.1118   1.1480   1.1535
  1.1826   1.2801   1.3039   1.3133   1.3265   1.3540   1.3762   1.3816
  1.4063   1.5340   1.6960   1.6988   1.7028   1.7768   1.8182   1.8417
  1.8556   1.8915   1.9595   2.0777   2.1013   2.1142   2.1540   2.2217
  2.2598   2.3114   2.3513   2.4401   2.5061   2.8527   2.9059   3.8586
  4.0432   4.0644   4.1138   4.2738
 --------------------------------------------------------------
 
          Ground-State Mulliken Net Atomic Charges

     Atom                 Charge (a.u.)
  ----------------------------------------
      1 S                     1.025626
      2 O                    -0.802544
      3 O                    -0.802533
      4 N                    -0.852854
      5 H                     0.496752
      6 C                    -0.470084
      7 H                     0.306356
      8 H                     0.297491
      9 H                     0.306035
     10 H                     0.495754
  ----------------------------------------
  Sum of atomic charges =     0.000000

         Merz-Kollman ESP Net Atomic Charges

     Atom                 Charge (a.u.)
  ----------------------------------------
      1 S                     1.148172
      2 O                    -0.579020
      3 O                    -0.577496
      4 N                    -0.822173
      5 H                     0.412617
      6 C                    -0.955874
      7 H                     0.307035
      8 H                     0.349897
      9 H                     0.306972
     10 H                     0.409870
  ----------------------------------------
  Sum of atomic charges =     0.000000

  Related Dipole Moment =     7.3328 (X  1.2365 Y -4.9498 Z -5.2670)

 -----------------------------------------------------------------
                    Cartesian Multipole Moments
 -----------------------------------------------------------------
    Charge (ESU x 10^10)
                 0.0000
    Dipole Moment (Debye)
         X       1.2442      Y      -4.9633      Z      -5.2947
       Tot       7.3632
    Quadrupole Moments (Debye-Ang)
        XX     -46.2728     XY      10.1366     YY     -35.1039
        XZ       8.4542     YZ      -8.4721     ZZ     -48.9080
    Octopole Moments (Debye-Ang^2)
       XXX     229.0182    XXY     -41.0357    XYY      62.5695
       YYY     -39.7384    XXZ     -67.5919    XYZ      11.7922
       YYZ     -44.4880    XZZ      80.6382    YZZ     -20.2307
       ZZZ    -158.7074
    Hexadecapole Moments (Debye-Ang^3)
      XXXX    -955.3976   XXXY     148.1116   XXYY    -171.0259
      XYYY      69.4896   YYYY    -171.1599   XXXZ     305.4448
      XXYZ     -39.2450   XYYZ      81.6257   YYYZ     -46.3353
      XXZZ    -264.2378   XYZZ      23.6529   YYZZ    -122.3260
      XZZZ     271.1699   YZZZ     -38.5471   ZZZZ    -573.5309
 -----------------------------------------------------------------
 Total job time:  3.78s(wall), 29.18s(cpu) 
 Fri May 20 21:01:05 2022

        *************************************************************
        *                                                           *
        *  Thank you very much for using Q-Chem.  Have a nice day.  *
        *                                                           *
        *************************************************************


