                  Welcome to Q-Chem
     A Quantum Leap Into The Future Of Chemistry


 Q-Chem 5.4 (devel), Q-Chem, Inc., Pleasanton, CA (2021)

 E. Epifanovsky,  A. T. B. Gilbert,  Xintian Feng,  Joonho Lee,  Yuezhi Mao,  
 N. Mardirossian,  P. Pokhilko,  A. White,  M. Wormit,  M. P. Coons,  
 A. L. Dempwolff,  Zhengting Gan,  D. Hait,  P. R. Horn,  L. D. Jacobson,  
 I. Kaliman,  J. Kussmann,  A. W. Lange,  Ka Un Lao,  D. S. Levine,  Jie Liu,  
 S. C. McKenzie,  A. F. Morrison,  K. Nanda,  F. Plasser,  D. R. Rehn,  
 M. L. Vidal,  Zhi-Qiang You,  Ying Zhu,  B. Alam,  B. Albrecht,  
 A. Aldossary,  E. Alguire,  J. H. Andersen,  D. Barton,  K. Begam,  A. Behn,  
 Y. A. Bernard,  E. J. Berquist,  H. Burton,  A. Carreras,  K. Carter-Fenk,  
 R. Chakraborty,  A. D. Chien,  K. D. Closser,  V. Cofer-Shabica,  
 S. Dasgupta,  Jia Deng,  M. de Wergifosse,  M. Diedenhofen,  Hainam Do,  
 S. Ehlert,  Po-Tung Fang,  S. Fatehi,  Qingguo Feng,  T. Friedhoff,  
 J. Gayvert,  Qinghui Ge,  G. Gidofalvi,  M. Goldey,  J. Gomes,  
 C. Gonzalez-Espinoza,  S. Gulania,  A. Gunina,  M. W. D. Hanson-Heine,  
 P. H. P. Harbach,  A. W. Hauser,  M. F. Herbst,  M. Hernandez Vera,  
 M. Hodecker,  Z. C. Holden,  S. Houck,  Xunkun Huang,  Kerwin Hui,  
 B. C. Huynh,  M. Ivanov,  Hyunjun Ji,  Hanjie Jiang,  B. Kaduk,  S. Kaehler,  
 K. Khistyaev,  Jaehoon Kim,  P. Klunzinger,  Z. Koczor-Benda,  
 Joong Hoon Koh,  D. Kosenkov,  L. Koulias,  T. Kowalczyk,  C. M. Krauter,  
 K. Kue,  A. Kunitsa,  T. Kus,  A. Landau,  K. V. Lawler,  D. Lefrancois,  
 S. Lehtola,  Rain Li,  Yi-Pei Li,  Jiashu Liang,  M. Liebenthal,  
 Hung-Hsuan Lin,  You-Sheng Lin,  Fenglai Liu,  Kuan-Yu Liu,  
 M. Loipersberger,  A. Luenser,  A. Manjanath,  P. Manohar,  E. Mansoor,  
 S. F. Manzer,  Shan-Ping Mao,  A. V. Marenich,  T. Markovich,  S. Mason,  
 S. A. Maurer,  P. F. McLaughlin,  M. F. S. J. Menger,  J.-M. Mewes,  
 S. A. Mewes,  P. Morgante,  J. W. Mullinax,  K. J. Oosterbaan,  G. Paran,  
 Alexander C. Paul,  Suranjan K. Paul,  F. Pavosevic,  Zheng Pei,  S. Prager,  
 E. I. Proynov,  E. Ramos,  B. Rana,  A. E. Rask,  A. Rettig,  R. M. Richard,  
 F. Rob,  E. Rossomme,  T. Scheele,  M. Scheurer,  M. Schneider,  
 N. Sergueev,  S. M. Sharada,  W. Skomorowski,  D. W. Small,  C. J. Stein,  
 Yu-Chuan Su,  E. J. Sundstrom,  Zhen Tao,  J. Thirman,  T. Tsuchimochi,  
 N. M. Tubman,  S. P. Veccham,  O. Vydrov,  J. Wenzel,  J. Witte,  A. Yamada,  
 Kun Yao,  S. Yeganeh,  S. R. Yost,  A. Zech,  Igor Ying Zhang,  Xing Zhang,  
 Yu Zhang,  D. Zuev,  A. Aspuru-Guzik,  A. T. Bell,  N. A. Besley,  
 K. B. Bravaya,  B. R. Brooks,  D. Casanova,  Jeng-Da Chai,  S. Coriani,  
 C. J. Cramer,  A. E. DePrince, III,  R. A. DiStasio Jr.,  A. Dreuw,  
 B. D. Dunietz,  T. R. Furlani,  W. A. Goddard III,  S. Grimme,  
 S. Hammes-Schiffer,  T. Head-Gordon,  W. J. Hehre,  Chao-Ping Hsu,  
 T.-C. Jagau,  Yousung Jung,  A. Klamt,  Jing Kong,  D. S. Lambrecht,  
 WanZhen Liang,  N. J. Mayhall,  C. W. McCurdy,  J. B. Neaton,  
 C. Ochsenfeld,  J. A. Parkhill,  R. Peverati,  V. A. Rassolov,  Yihan Shao,  
 L. V. Slipchenko,  T. Stauch,  R. P. Steele,  J. E. Subotnik,  
 A. J. W. Thom,  A. Tkatchenko,  D. G. Truhlar,  T. Van Voorhis,  
 T. A. Wesolowski,  K. B. Whaley,  H. L. Woodcock III,  P. M. Zimmerman,  
 S. Faraji,  P. M. W. Gill,  M. Head-Gordon,  J. M. Herbert,  A. I. Krylov

 Additional authors for Version 5.4.1: 
 S. Kotaru,  Shaozhi Li,  Xiangyuan Li,  F. Matz,  A. Molle,  Haisheng Ren,  
 Yingli Su,  Hung-Yi Tsai,  C. Utku,  Fang Wang

 Contributors to earlier versions of Q-Chem not listed above: 
 R. D. Adamson,  B. Austin,  R. Baer,  J. Baker,  G. J. O. Beran,  
 K. Brandhorst,  S. T. Brown,  E. F. C. Byrd,  A. K. Chakraborty,  
 G. K. L. Chan,  Chun-Min Chang,  Yunqing Chen,  C.-L. Cheng,  
 Siu Hung Chien,  D. M. Chipman,  D. L. Crittenden,  H. Dachsel,  
 R. J. Doerksen,  A. D. Dutoi,  R. G. Edgar,  J. Fosso-Tande,  
 L. Fusti-Molnar,  D. Ghosh,  A. Ghysels,  A. Golubeva-Zadorozhnaya,  
 J. Gonthier,  M. S. Gordon,  S. R. Gwaltney,  G. Hawkins,  J. E. Herr,  
 A. Heyden,  S. Hirata,  E. G. Hohenstein,  G. Kedziora,  F. J. Keil,  
 C. Kelley,  Jihan Kim,  R. A. King,  R. Z. Khaliullin,  P. P. Korambath,  
 W. Kurlancheek,  A. Laurent,  A. M. Lee,  M. S. Lee,  S. V. Levchenko,  
 Ching Yeh Lin,  D. Liotard,  E. Livshits,  R. C. Lochan,  I. Lotan,  
 L. A. Martinez-Martinez,  P. E. Maslen,  N. Nair,  D. P. O'Neill,  
 D. Neuhauser,  E. Neuscamman,  C. M. Oana,  R. Olivares-Amaya,  R. Olson,  
 T. M. Perrine,  B. Peters,  P. A. Pieniazek,  A. Prociuk,  Y. M. Rhee,  
 J. Ritchie,  M. A. Rohrdanz,  E. Rosta,  N. J. Russ,  H. F. Schaefer III,  
 M. W. Schmidt,  N. E. Schultz,  S. Sharma,  N. Shenvi,  C. D. Sherrill,  
 A. C. Simmonett,  A. Sodt,  T. Stein,  D. Stuck,  K. S. Thanthiriwatte,  
 V. Vanovschi,  L. Vogt,  Tao Wang,  A. Warshel,  M. A. Watson,  
 C. F. Williams,  Q. Wu,  X. Xu,  Jun Yang,  W. Zhang,  Yan Zhao

 Please cite Q-Chem as follows:
 Y. Shao et al., Mol. Phys. 113, 184-215 (2015)
 DOI: 10.1080/00268976.2014.952696

 Q-Chem 5.4.1 for Intel X86 EM64T Linux

 Parts of Q-Chem use Armadillo 9.800.1 (Horizon Scraper).
 http://arma.sourceforge.net/

 Q-Chem begins on Sun May 22 16:02:56 2022  

 Host: gadi-cpu-clx-0882.gadi.nci.org.au
0

     Scratch files written to /jobfs/40920421.gadi-pbs/qchem210088//
 Processing $rem in /apps/qchem/5.4.1/config/preferences:
 Processing $rem in /home/561/yj5695/.qchemrc:
 Symmetry turned off for PCM/SM12/SMD calculation
 Method-specific promolecule density matrix will be built for SM12 calculation

 Checking the input file for inconsistencies... 	...done.

--------------------------------------------------------------
User input:
--------------------------------------------------------------
$molecule
0  1
C -1.4446181721  0.5653592064 -0.8582119853
C -2.4584167275  0.0342584948 -1.6503463259
H -3.3027575708 -0.4793806246 -1.2024676369
C -2.3611403603  0.1647097826 -3.0327543029
H -3.1363704584 -0.2489557757 -3.6678587117
C -1.2645266637  0.824977237 -3.5926822066
C -1.1246699482  0.9831031514 -5.0716438524
C -0.2597562666  1.3563734606 -2.7794553421
H  0.5876602654  1.8635881864 -3.2285005536
C -0.3441071397  1.2284544203 -1.3983308691
H  0.4345003996  1.6310161765 -0.7576834961
S -1.5761777224  0.4401742505  0.9150871105
O -2.5320949618 -0.622185895  1.2226526542
O -0.2213978201  0.3760575709  1.4616705446
N -2.2361208574  1.8388901304  1.4883835493
H -3.1780051022  1.9934070803  1.1226321677
H -1.6383963704  2.6468574241  1.3013740356
O -2.1170303735  0.4170437447 -5.7528899811
O -0.1980528939  1.5691381333 -5.6023136664
C -2.0470278218  0.5281506477 -7.1845273653
H -2.929976032  0.0131160283 -7.557405167
H -1.1378920284  0.0469957376 -7.549855953
H -2.0626473737  1.5798174312 -7.4764366465
$end

$rem
jobtype sp
exchange M062X
basis 6-31+G*
xc_grid 1
SMX_GAS_PHASE = TRUE
solvent_method sm12
$end

$smx
solvent water
charges mk
$end
--------------------------------------------------------------
 ----------------------------------------------------------------
             Standard Nuclear Orientation (Angstroms)
    I     Atom           X                Y                Z
 ----------------------------------------------------------------
    1      C      -1.4446181721     0.5653592064    -0.8582119853
    2      C      -2.4584167275     0.0342584948    -1.6503463259
    3      H      -3.3027575708    -0.4793806246    -1.2024676369
    4      C      -2.3611403603     0.1647097826    -3.0327543029
    5      H      -3.1363704584    -0.2489557757    -3.6678587117
    6      C      -1.2645266637     0.8249772370    -3.5926822066
    7      C      -1.1246699482     0.9831031514    -5.0716438524
    8      C      -0.2597562666     1.3563734606    -2.7794553421
    9      H       0.5876602654     1.8635881864    -3.2285005536
   10      C      -0.3441071397     1.2284544203    -1.3983308691
   11      H       0.4345003996     1.6310161765    -0.7576834961
   12      S      -1.5761777224     0.4401742505     0.9150871105
   13      O      -2.5320949618    -0.6221858950     1.2226526542
   14      O      -0.2213978201     0.3760575709     1.4616705446
   15      N      -2.2361208574     1.8388901304     1.4883835493
   16      H      -3.1780051022     1.9934070803     1.1226321677
   17      H      -1.6383963704     2.6468574241     1.3013740356
   18      O      -2.1170303735     0.4170437447    -5.7528899811
   19      O      -0.1980528939     1.5691381333    -5.6023136664
   20      C      -2.0470278218     0.5281506477    -7.1845273653
   21      H      -2.9299760320     0.0131160283    -7.5574051670
   22      H      -1.1378920284     0.0469957376    -7.5498559530
   23      H      -2.0626473737     1.5798174312    -7.4764366465
 ----------------------------------------------------------------
 Nuclear Repulsion Energy =        1005.53552575 hartrees
 There are       56 alpha and       56 beta electrons
 Requested basis set is 6-31+G(d)
 There are 89 shells and 288 basis functions

 Total QAlloc Memory Limit   2000 MB
 Mega-Array Size       188 MB
 MEM_STATIC part       192 MB
 A cutoff of  1.0D-08 yielded   2886 shell pairs
 There are     32556 function pairs
 Smallest overlap matrix eigenvalue = 9.18E-07

 Q-Chem warning in module stvman/mkSTV.C, line 323:

 Overlap eigenvalue is smaller than square root of threshold
 Use THRESH >= 12 to get rid of this warning

 Linear dependence detected in AO basis
 Tighter screening thresholds may be required for diffuse basis sets
 Use S2THRESH > 14 and THRESH = 14 in case of SCF convergence issues
 Number of orthogonalized atomic orbitals = 287
 Maximum deviation from orthogonality = 9.393E-11

 Scale SEOQF with 1.000000e-01/1.000000e-01/1.000000e-02

 Standard Electronic Orientation quadrupole field applied
 Nucleus-field energy     =     0.0000000041 hartrees
 ================ Generating on-the-fly Promolecule Density  ================
Attempting to make child job directory: /jobfs/40920421.gadi-pbs/qchem210088//Frg1/
Attempting to make child job directory: /jobfs/40920421.gadi-pbs/qchem210088//Frg2/
Attempting to make child job directory: /jobfs/40920421.gadi-pbs/qchem210088//Frg3/
Attempting to make child job directory: /jobfs/40920421.gadi-pbs/qchem210088//Frg4/
Attempting to make child job directory: /jobfs/40920421.gadi-pbs/qchem210088//Frg5/
Creating input file /jobfs/40920421.gadi-pbs/qchem210088/Frg1.input
using default PutDataFrgm: nothing
calling putenv with: QCSCRATCH=/jobfs/40920421.gadi-pbs/qchem210088/ 
Spawning Job For Fragment 0
Done Job For Fragment 0
calling putenv with: QCSCRATCH=/jobfs/40920421.gadi-pbs 
calling putenv with: QCTHREADS=16 
Creating input file /jobfs/40920421.gadi-pbs/qchem210088/Frg2.input
using default PutDataFrgm: nothing
calling putenv with: QCSCRATCH=/jobfs/40920421.gadi-pbs/qchem210088/ 
Spawning Job For Fragment 1
Done Job For Fragment 1
calling putenv with: QCSCRATCH=/jobfs/40920421.gadi-pbs 
calling putenv with: QCTHREADS=16 
Creating input file /jobfs/40920421.gadi-pbs/qchem210088/Frg3.input
using default PutDataFrgm: nothing
calling putenv with: QCSCRATCH=/jobfs/40920421.gadi-pbs/qchem210088/ 
Spawning Job For Fragment 2
Done Job For Fragment 2
calling putenv with: QCSCRATCH=/jobfs/40920421.gadi-pbs 
calling putenv with: QCTHREADS=16 
Creating input file /jobfs/40920421.gadi-pbs/qchem210088/Frg4.input
using default PutDataFrgm: nothing
calling putenv with: QCSCRATCH=/jobfs/40920421.gadi-pbs/qchem210088/ 
Spawning Job For Fragment 3
Done Job For Fragment 3
calling putenv with: QCSCRATCH=/jobfs/40920421.gadi-pbs 
calling putenv with: QCTHREADS=16 
Creating input file /jobfs/40920421.gadi-pbs/qchem210088/Frg5.input
using default PutDataFrgm: nothing
calling putenv with: QCSCRATCH=/jobfs/40920421.gadi-pbs/qchem210088/ 
Spawning Job For Fragment 4
Done Job For Fragment 4
calling putenv with: QCSCRATCH=/jobfs/40920421.gadi-pbs 
calling putenv with: QCTHREADS=16 
 Time for running child jobs:  CPU 2.22 s  wall 2.10 s
 ============= Method Specific Promolecule Density Constructed =============
 Guess from superposition of atomic densities
 Warning:  Energy on first SCF cycle will be non-variational
 SAD guess density has 112.000000 electrons

 -----------------------------------------------------------------------
  General SCF calculation program by
  Eric Jon Sundstrom, Paul Horn, Yuezhi Mao, Dmitri Zuev, Alec White,
  David Stuck, Shaama M.S., Shane Yost, Joonho Lee, David Small,
  Daniel Levine, Susi Lehtola, Hugh Burton, Evgeny Epifanovsky,
  Bang C. Huynh
 -----------------------------------------------------------------------
 Exchange:     0.5400 Hartree-Fock + 1.0000 M06-2X
 Correlation:  1.0000 M06-2X
 Using SG-1 standard quadrature grid
 using 16 threads for integral computing
 -------------------------------------------------------
 OpenMP Integral computing Module                
 Release: version 1.0, May 2013, Q-Chem Inc. Pittsburgh 
 -------------------------------------------------------
 A restricted SCF calculation will be
 performed using DIIS
 SCF converges when DIIS error is below 1.0e-05
 ---------------------------------------
  Cycle       Energy         DIIS error
 ---------------------------------------
    1   -1067.9985249154      4.54e-02  
    2   -1063.4574952025      5.96e-03  
    3   -1063.1897928930      8.69e-03  
    4   -1063.7570576336      9.01e-04  
    5   -1063.7630638970      4.34e-04  
    6   -1063.7645830015      1.02e-04  
    7   -1063.7646672879      3.97e-05  
    8   -1063.7646812750      1.06e-05  
    9   -1063.7646831462      6.27e-06  Convergence criterion met
 ---------------------------------------
 SCF time:   CPU 73.66s  wall 5.00s 
 SCF   energy in the final basis set =    -1063.7646831462
 Total energy in the final basis set =    -1063.7646831462
 Exchange:     0.5400 Hartree-Fock + 1.0000 M06-2X
 Correlation:  1.0000 M06-2X
 Using SG-1 standard quadrature grid
 
 SM12 calculation using Merz-Singh-Kollman charges
 Citation of the SM12 model:
 Marenich, A.V.; Cramer, C.J.; Truhlar, D.G.
 J. Chem. Theory Comput. 2013, 9, 609-612.
 iSolventCode=           1
 Solvent: water                                                           
 
  Building new vdw surfaces
         Merz-Kollman ESP Net Atomic Charges

     Atom                 Charge (a.u.)
  ----------------------------------------
      1 C                    -0.077993
      2 C                    -0.106488
      3 H                     0.159842
      4 C                    -0.120409
      5 H                     0.133197
      6 C                    -0.151372
      7 C                     0.745120
      8 C                    -0.056243
      9 H                     0.147556
     10 C                    -0.167749
     11 H                     0.164919
     12 S                     1.042135
     13 O                    -0.507430
     14 O                    -0.500114
     15 N                    -0.794414
     16 H                     0.367184
     17 H                     0.369867
     18 O                    -0.258990
     19 O                    -0.545243
     20 C                    -0.405852
     21 H                     0.189687
     22 H                     0.194086
     23 H                     0.178702
  ----------------------------------------
  Sum of atomic charges =     0.000000

  Related Dipole Moment =     6.3363 (X -2.9034 Y  3.0950 Z -4.7053)


 Charges (in A.U.) from Merz-Kollman fitting 
 -----------------------------------------------
 Center     Atomic                  MZ       
 Number     Number                  Charge
 -----------------------------------------------
    1          6                   -0.077993
    2          6                   -0.106488
    3          1                    0.159842
    4          6                   -0.120409
    5          1                    0.133197
    6          6                   -0.151372
    7          6                    0.745120
    8          6                   -0.056243
    9          1                    0.147556
   10          6                   -0.167749
   11          1                    0.164919
   12         16                    1.042135
   13          8                   -0.507430
   14          8                   -0.500114
   15          7                   -0.794414
   16          1                    0.367184
   17          1                    0.369867
   18          8                   -0.258990
   19          8                   -0.545243
   20          6                   -0.405852
   21          1                    0.189687
   22          1                    0.194086
   23          1                    0.178702
 -----------------------------------------------
 A restricted SCF calculation will be
 performed using Roothaan-Hall, DIIS
 SCF converges when DIIS error is below 1.0e-05
 ---------------------------------------
  Cycle       Energy         DIIS error
 ---------------------------------------
         Merz-Kollman ESP Net Atomic Charges

     Atom                 Charge (a.u.)
  ----------------------------------------
      1 C                    -0.052869
      2 C                    -0.120960
      3 H                     0.168613
      4 C                    -0.107874
      5 H                     0.143036
      6 C                    -0.170730
      7 C                     0.784159
      8 C                    -0.041617
      9 H                     0.151826
     10 C                    -0.188475
     11 H                     0.176634
     12 S                     1.089216
     13 O                    -0.564590
     14 O                    -0.559526
     15 N                    -0.786805
     16 H                     0.384708
     17 H                     0.388217
     18 O                    -0.257677
     19 O                    -0.606198
     20 C                    -0.417897
     21 H                     0.204447
     22 H                     0.200576
     23 H                     0.183788
  ----------------------------------------
  Sum of atomic charges =     0.000000

  Related Dipole Moment =     7.1727 (X -3.5993 Y  3.5344 Z -5.0990)


 Charges (in A.U.) from Merz-Kollman fitting 
 -----------------------------------------------
 Center     Atomic                  MZ       
 Number     Number                  Charge
 -----------------------------------------------
    1          6                   -0.052869
    2          6                   -0.120960
    3          1                    0.168613
    4          6                   -0.107874
    5          1                    0.143036
    6          6                   -0.170730
    7          6                    0.784159
    8          6                   -0.041617
    9          1                    0.151826
   10          6                   -0.188475
   11          1                    0.176634
   12         16                    1.089216
   13          8                   -0.564590
   14          8                   -0.559526
   15          7                   -0.786805
   16          1                    0.384708
   17          1                    0.388217
   18          8                   -0.257677
   19          8                   -0.606198
   20          6                   -0.417897
   21          1                    0.204447
   22          1                    0.200576
   23          1                    0.183788
 -----------------------------------------------
    1   -1063.7646825565      4.21e-04  Roothaan Step
 ---------------------------------------
  Cycle       Energy         DIIS error
 ---------------------------------------
         Merz-Kollman ESP Net Atomic Charges

     Atom                 Charge (a.u.)
  ----------------------------------------
      1 C                    -0.045570
      2 C                    -0.134218
      3 H                     0.171929
      4 C                    -0.106784
      5 H                     0.147428
      6 C                    -0.179681
      7 C                     0.765603
      8 C                    -0.032396
      9 H                     0.153618
     10 C                    -0.199959
     11 H                     0.179067
     12 S                     1.037500
     13 O                    -0.536786
     14 O                    -0.529972
     15 N                    -0.788413
     16 H                     0.381943
     17 H                     0.386272
     18 O                    -0.272026
     19 O                    -0.574302
     20 C                    -0.421325
     21 H                     0.207829
     22 H                     0.205105
     23 H                     0.185138
  ----------------------------------------
  Sum of atomic charges =     0.000000

  Related Dipole Moment =     7.0478 (X -3.2921 Y  3.4543 Z -5.1866)


 Charges (in A.U.) from Merz-Kollman fitting 
 -----------------------------------------------
 Center     Atomic                  MZ       
 Number     Number                  Charge
 -----------------------------------------------
    1          6                   -0.045570
    2          6                   -0.134218
    3          1                    0.171929
    4          6                   -0.106784
    5          1                    0.147428
    6          6                   -0.179681
    7          6                    0.765603
    8          6                   -0.032396
    9          1                    0.153618
   10          6                   -0.199959
   11          1                    0.179067
   12         16                    1.037500
   13          8                   -0.536786
   14          8                   -0.529972
   15          7                   -0.788413
   16          1                    0.381943
   17          1                    0.386272
   18          8                   -0.272026
   19          8                   -0.574302
   20          6                   -0.421325
   21          1                    0.207829
   22          1                    0.205105
   23          1                    0.185138
 -----------------------------------------------
    1   -1063.7592041475      3.41e-04  
         Merz-Kollman ESP Net Atomic Charges

     Atom                 Charge (a.u.)
  ----------------------------------------
      1 C                    -0.042245
      2 C                    -0.131205
      3 H                     0.170958
      4 C                    -0.107607
      5 H                     0.146278
      6 C                    -0.176032
      7 C                     0.781558
      8 C                    -0.037349
      9 H                     0.153417
     10 C                    -0.198107
     11 H                     0.178742
     12 S                     1.080266
     13 O                    -0.559691
     14 O                    -0.554015
     15 N                    -0.786731
     16 H                     0.382962
     17 H                     0.386975
     18 O                    -0.263034
     19 O                    -0.599762
     20 C                    -0.424038
     21 H                     0.208200
     22 H                     0.204739
     23 H                     0.185721
  ----------------------------------------
  Sum of atomic charges =     0.000000

  Related Dipole Moment =     7.1666 (X -3.5235 Y  3.5035 Z -5.1643)


 Charges (in A.U.) from Merz-Kollman fitting 
 -----------------------------------------------
 Center     Atomic                  MZ       
 Number     Number                  Charge
 -----------------------------------------------
    1          6                   -0.042245
    2          6                   -0.131205
    3          1                    0.170958
    4          6                   -0.107607
    5          1                    0.146278
    6          6                   -0.176032
    7          6                    0.781558
    8          6                   -0.037349
    9          1                    0.153417
   10          6                   -0.198107
   11          1                    0.178742
   12         16                    1.080266
   13          8                   -0.559691
   14          8                   -0.554015
   15          7                   -0.786731
   16          1                    0.382962
   17          1                    0.386975
   18          8                   -0.263034
   19          8                   -0.599762
   20          6                   -0.424038
   21          1                    0.208200
   22          1                    0.204739
   23          1                    0.185721
 -----------------------------------------------
    2   -1063.7604061587      4.50e-04  
         Merz-Kollman ESP Net Atomic Charges

     Atom                 Charge (a.u.)
  ----------------------------------------
      1 C                    -0.044571
      2 C                    -0.130516
      3 H                     0.171100
      4 C                    -0.106258
      5 H                     0.146572
      6 C                    -0.177228
      7 C                     0.780878
      8 C                    -0.035603
      9 H                     0.153482
     10 C                    -0.197350
     11 H                     0.178836
     12 S                     1.074786
     13 O                    -0.558740
     14 O                    -0.552993
     15 N                    -0.785639
     16 H                     0.383528
     17 H                     0.387600
     18 O                    -0.265521
     19 O                    -0.598637
     20 C                    -0.423175
     21 H                     0.208563
     22 H                     0.204959
     23 H                     0.185928
  ----------------------------------------
  Sum of atomic charges =     0.000000

  Related Dipole Moment =     7.1966 (X -3.5186 Y  3.5247 Z -5.1949)


 Charges (in A.U.) from Merz-Kollman fitting 
 -----------------------------------------------
 Center     Atomic                  MZ       
 Number     Number                  Charge
 -----------------------------------------------
    1          6                   -0.044571
    2          6                   -0.130516
    3          1                    0.171100
    4          6                   -0.106258
    5          1                    0.146572
    6          6                   -0.177228
    7          6                    0.780878
    8          6                   -0.035603
    9          1                    0.153482
   10          6                   -0.197350
   11          1                    0.178836
   12         16                    1.074786
   13          8                   -0.558740
   14          8                   -0.552993
   15          7                   -0.785639
   16          1                    0.383528
   17          1                    0.387600
   18          8                   -0.265521
   19          8                   -0.598637
   20          6                   -0.423175
   21          1                    0.208563
   22          1                    0.204959
   23          1                    0.185928
 -----------------------------------------------
    3   -1063.7600714871      3.41e-05  
         Merz-Kollman ESP Net Atomic Charges

     Atom                 Charge (a.u.)
  ----------------------------------------
      1 C                    -0.042344
      2 C                    -0.131628
      3 H                     0.171300
      4 C                    -0.106605
      5 H                     0.146822
      6 C                    -0.177500
      7 C                     0.781506
      8 C                    -0.035889
      9 H                     0.153708
     10 C                    -0.198493
     11 H                     0.179047
     12 S                     1.075707
     13 O                    -0.559036
     14 O                    -0.553305
     15 N                    -0.786147
     16 H                     0.383502
     17 H                     0.387602
     18 O                    -0.264432
     19 O                    -0.599863
     20 C                    -0.424231
     21 H                     0.208904
     22 H                     0.205275
     23 H                     0.186101
  ----------------------------------------
  Sum of atomic charges =     0.000000

  Related Dipole Moment =     7.1954 (X -3.5273 Y  3.5157 Z -5.1934)


 Charges (in A.U.) from Merz-Kollman fitting 
 -----------------------------------------------
 Center     Atomic                  MZ       
 Number     Number                  Charge
 -----------------------------------------------
    1          6                   -0.042344
    2          6                   -0.131628
    3          1                    0.171300
    4          6                   -0.106605
    5          1                    0.146822
    6          6                   -0.177500
    7          6                    0.781506
    8          6                   -0.035889
    9          1                    0.153708
   10          6                   -0.198493
   11          1                    0.179047
   12         16                    1.075707
   13          8                   -0.559036
   14          8                   -0.553305
   15          7                   -0.786147
   16          1                    0.383502
   17          1                    0.387602
   18          8                   -0.264432
   19          8                   -0.599863
   20          6                   -0.424231
   21          1                    0.208904
   22          1                    0.205275
   23          1                    0.186101
 -----------------------------------------------
    4   -1063.7599566866      1.81e-05  
    5   -1063.7599117097      4.95e-06  Convergence criterion met
 ---------------------------------------
 SCF time:   CPU 76.77s  wall 5.00s 
(0)  E-EN(g) gas-phase elect-nuc energy                -1063.764683146 a.u.
(1)  E-EN(liq) elect-nuc energy of solute              -1063.759911710 a.u.
(2)  G-P(liq) polarization free energy of solvation           -22.1883 kcal/mol
(3)  G-ENP(liq) elect-nuc-pol free energy of system    -1063.795271013 a.u.
(4)  G-CDS(liq) cavity-dispersion-solvent structure 
     free energy                                                3.7991 kcal/mol
(5)  G-P-CDS(liq) = G-P(liq) + G-CDS(liq) = (2) + (4)         -18.3892 kcal/mol
(6)  G-S(liq) free energy of system = (1) + (5)        -1063.789216741 a.u.
(7)  DeltaE-EN(liq) elect-nuc reorganization
     energy of solute molecule (7) = (1) - (0)                  2.9941 kcal/mol
(8)  DeltaG-ENP(liq) elect-nuc-pol free energy
     of solvation (8) = (3) - (0)                             -19.1942 kcal/mol
(9)  DeltaG-S(liq) free energy of  solvation
     (9) = (6) - (0)                                          -15.3951 kcal/mol
 SCF   energy in the final basis set =    -1063.7892167408
 Total energy in the final basis set =    -1063.7892167408
 
 --------------------------------------------------------------
 
                    Orbital Energies (a.u.)
 --------------------------------------------------------------
 
 Alpha MOs
 -- Occupied --
-90.1807 -19.7093 -19.6604 -19.6597 -19.6547 -14.8080 -10.7067 -10.6139
-10.6035 -10.5966 -10.5912 -10.5907 -10.5875 -10.5860  -8.4898  -6.4118
 -6.4113  -6.4105  -1.2612  -1.2557  -1.1578  -1.1474  -1.0366  -1.0023
 -0.9100  -0.8794  -0.8399  -0.7813  -0.7252  -0.7148  -0.6670  -0.6521
 -0.6279  -0.6185  -0.5928  -0.5833  -0.5814  -0.5535  -0.5441  -0.5321
 -0.5232  -0.5160  -0.4935  -0.4746  -0.4670  -0.4440  -0.4372  -0.4317
 -0.4223  -0.4074  -0.4026  -0.3911  -0.3859  -0.3770  -0.3387  -0.3382
 -- Virtual --
 -0.0504  -0.0077  -0.0034   0.0194   0.0322   0.0354   0.0448   0.0489
  0.0524   0.0527   0.0559   0.0622   0.0727   0.0794   0.0816   0.0881
  0.0925   0.0996   0.1052   0.1080   0.1164   0.1219   0.1282   0.1308
  0.1360   0.1451   0.1491   0.1531   0.1582   0.1619   0.1669   0.1720
  0.1781   0.1905   0.1936   0.1969   0.2028   0.2089   0.2161   0.2178
  0.2190   0.2252   0.2382   0.2433   0.2490   0.2535   0.2547   0.2596
  0.2628   0.2682   0.2728   0.2803   0.2868   0.2896   0.2964   0.3004
  0.3062   0.3107   0.3125   0.3159   0.3202   0.3258   0.3286   0.3372
  0.3452   0.3532   0.3625   0.3719   0.3757   0.3853   0.3952   0.4067
  0.4111   0.4239   0.4363   0.4686   0.4711   0.4769   0.5039   0.5375
  0.5601   0.5668   0.5898   0.6528   0.6657   0.6846   0.7019   0.7038
  0.7096   0.7263   0.7430   0.7460   0.7537   0.7805   0.7897   0.7927
  0.8071   0.8224   0.8229   0.8295   0.8613   0.8916   0.8969   0.9175
  0.9440   0.9529   0.9699   0.9712   0.9961   1.0019   1.0205   1.0320
  1.0345   1.0534   1.0743   1.0949   1.1049   1.1210   1.1259   1.1294
  1.1404   1.1578   1.1714   1.1818   1.1944   1.1961   1.2345   1.2421
  1.2709   1.2876   1.3000   1.3031   1.3134   1.3282   1.3468   1.3622
  1.3682   1.3739   1.3794   1.3830   1.3927   1.3999   1.4041   1.4155
  1.4319   1.4435   1.4778   1.4963   1.5050   1.5233   1.5290   1.5521
  1.5795   1.5971   1.6110   1.6604   1.7266   1.7427   1.7491   1.7804
  1.7840   1.7909   1.8054   1.8363   1.8531   1.8539   1.8920   1.8977
  1.9046   1.9213   1.9336   1.9488   2.0055   2.0230   2.0382   2.0579
  2.0681   2.1215   2.1275   2.1362   2.1441   2.1570   2.1613   2.1675
  2.1907   2.1937   2.2030   2.2312   2.2371   2.2831   2.2982   2.3125
  2.3380   2.3701   2.3784   2.4432   2.4620   2.4895   2.5222   2.5379
  2.6207   2.6350   2.6636   2.7122   2.7371   2.7840   2.8003   2.8290
  2.8550   2.9051   2.9272   2.9751   2.9890   3.1375   3.1595   3.2809
  3.4065   3.8820   4.0750   4.1982   4.2195   4.2302   4.2565   4.2871
  4.3379   4.4014   4.4036   4.4762   4.5569   4.6672   4.7552
 --------------------------------------------------------------
 
          Ground-State Mulliken Net Atomic Charges

     Atom                 Charge (a.u.)
  ----------------------------------------
      1 C                    -0.733102
      2 C                    -0.126303
      3 H                     0.294535
      4 C                    -0.139643
      5 H                     0.292647
      6 C                     0.143464
      7 C                     0.614378
      8 C                    -0.360860
      9 H                     0.283008
     10 C                    -0.063464
     11 H                     0.293428
     12 S                     1.305697
     13 O                    -0.747107
     14 O                    -0.733096
     15 N                    -0.815053
     16 H                     0.507673
     17 H                     0.507492
     18 O                    -0.329784
     19 O                    -0.681352
     20 C                    -0.264452
     21 H                     0.261994
     22 H                     0.246820
     23 H                     0.243081
  ----------------------------------------
  Sum of atomic charges =     0.000000

         Merz-Kollman ESP Net Atomic Charges

     Atom                 Charge (a.u.)
  ----------------------------------------
      1 C                    -0.042564
      2 C                    -0.131602
      3 H                     0.171290
      4 C                    -0.106699
      5 H                     0.146842
      6 C                    -0.177334
      7 C                     0.781478
      8 C                    -0.035926
      9 H                     0.153715
     10 C                    -0.198448
     11 H                     0.179032
     12 S                     1.076661
     13 O                    -0.559375
     14 O                    -0.553643
     15 N                    -0.786066
     16 H                     0.383414
     17 H                     0.387515
     18 O                    -0.264740
     19 O                    -0.599751
     20 C                    -0.424222
     21 H                     0.208932
     22 H                     0.205341
     23 H                     0.186148
  ----------------------------------------
  Sum of atomic charges =     0.000000

  Related Dipole Moment =     7.1962 (X -3.5260 Y  3.5173 Z -5.1943)

 -----------------------------------------------------------------
                    Cartesian Multipole Moments
 -----------------------------------------------------------------
    Charge (ESU x 10^10)
                -0.0000
    Dipole Moment (Debye)
         X      -3.5043      Y       3.4667      Z      -5.1849
       Tot       7.1542
    Quadrupole Moments (Debye-Ang)
        XX     -78.0788     XY      -9.5873     YY     -82.5182
        XZ      19.5179     YZ      10.4416     ZZ     -78.3990
    Octopole Moments (Debye-Ang^2)
       XXX     355.5563    XXY     -34.5918    XYY     116.0061
       YYY    -160.8191    XXZ     132.7300    XYZ      -4.9863
       YYZ     203.1181    XZZ      24.4939    YZZ    -100.9796
       ZZZ     348.9311
    Hexadecapole Moments (Debye-Ang^3)
      XXXX   -1517.1436   XXXY     121.1044   XXYY    -327.4355
      XYYY     140.7678   YYYY    -518.2252   XXXZ    -637.6322
      XXYZ     174.5842   XYYZ    -258.3554   YYYZ     498.0592
      XXZZ   -1179.6308   XYZZ      -2.7177   YYZZ   -1312.6218
      XZZZ     124.6544   YZZZ     631.8644   ZZZZ   -5133.9926
 -----------------------------------------------------------------
 Total job time:  12.58s(wall), 160.51s(cpu) 
 Sun May 22 16:03:09 2022

        *************************************************************
        *                                                           *
        *  Thank you very much for using Q-Chem.  Have a nice day.  *
        *                                                           *
        *************************************************************


