                  Welcome to Q-Chem
     A Quantum Leap Into The Future Of Chemistry


 Q-Chem 5.4 (devel), Q-Chem, Inc., Pleasanton, CA (2021)

 E. Epifanovsky,  A. T. B. Gilbert,  Xintian Feng,  Joonho Lee,  Yuezhi Mao,  
 N. Mardirossian,  P. Pokhilko,  A. White,  M. Wormit,  M. P. Coons,  
 A. L. Dempwolff,  Zhengting Gan,  D. Hait,  P. R. Horn,  L. D. Jacobson,  
 I. Kaliman,  J. Kussmann,  A. W. Lange,  Ka Un Lao,  D. S. Levine,  Jie Liu,  
 S. C. McKenzie,  A. F. Morrison,  K. Nanda,  F. Plasser,  D. R. Rehn,  
 M. L. Vidal,  Zhi-Qiang You,  Ying Zhu,  B. Alam,  B. Albrecht,  
 A. Aldossary,  E. Alguire,  J. H. Andersen,  D. Barton,  K. Begam,  A. Behn,  
 Y. A. Bernard,  E. J. Berquist,  H. Burton,  A. Carreras,  K. Carter-Fenk,  
 R. Chakraborty,  A. D. Chien,  K. D. Closser,  V. Cofer-Shabica,  
 S. Dasgupta,  Jia Deng,  M. de Wergifosse,  M. Diedenhofen,  Hainam Do,  
 S. Ehlert,  Po-Tung Fang,  S. Fatehi,  Qingguo Feng,  T. Friedhoff,  
 J. Gayvert,  Qinghui Ge,  G. Gidofalvi,  M. Goldey,  J. Gomes,  
 C. Gonzalez-Espinoza,  S. Gulania,  A. Gunina,  M. W. D. Hanson-Heine,  
 P. H. P. Harbach,  A. W. Hauser,  M. F. Herbst,  M. Hernandez Vera,  
 M. Hodecker,  Z. C. Holden,  S. Houck,  Xunkun Huang,  Kerwin Hui,  
 B. C. Huynh,  M. Ivanov,  Hyunjun Ji,  Hanjie Jiang,  B. Kaduk,  S. Kaehler,  
 K. Khistyaev,  Jaehoon Kim,  P. Klunzinger,  Z. Koczor-Benda,  
 Joong Hoon Koh,  D. Kosenkov,  L. Koulias,  T. Kowalczyk,  C. M. Krauter,  
 K. Kue,  A. Kunitsa,  T. Kus,  A. Landau,  K. V. Lawler,  D. Lefrancois,  
 S. Lehtola,  Rain Li,  Yi-Pei Li,  Jiashu Liang,  M. Liebenthal,  
 Hung-Hsuan Lin,  You-Sheng Lin,  Fenglai Liu,  Kuan-Yu Liu,  
 M. Loipersberger,  A. Luenser,  A. Manjanath,  P. Manohar,  E. Mansoor,  
 S. F. Manzer,  Shan-Ping Mao,  A. V. Marenich,  T. Markovich,  S. Mason,  
 S. A. Maurer,  P. F. McLaughlin,  M. F. S. J. Menger,  J.-M. Mewes,  
 S. A. Mewes,  P. Morgante,  J. W. Mullinax,  K. J. Oosterbaan,  G. Paran,  
 Alexander C. Paul,  Suranjan K. Paul,  F. Pavosevic,  Zheng Pei,  S. Prager,  
 E. I. Proynov,  E. Ramos,  B. Rana,  A. E. Rask,  A. Rettig,  R. M. Richard,  
 F. Rob,  E. Rossomme,  T. Scheele,  M. Scheurer,  M. Schneider,  
 N. Sergueev,  S. M. Sharada,  W. Skomorowski,  D. W. Small,  C. J. Stein,  
 Yu-Chuan Su,  E. J. Sundstrom,  Zhen Tao,  J. Thirman,  T. Tsuchimochi,  
 N. M. Tubman,  S. P. Veccham,  O. Vydrov,  J. Wenzel,  J. Witte,  A. Yamada,  
 Kun Yao,  S. Yeganeh,  S. R. Yost,  A. Zech,  Igor Ying Zhang,  Xing Zhang,  
 Yu Zhang,  D. Zuev,  A. Aspuru-Guzik,  A. T. Bell,  N. A. Besley,  
 K. B. Bravaya,  B. R. Brooks,  D. Casanova,  Jeng-Da Chai,  S. Coriani,  
 C. J. Cramer,  A. E. DePrince, III,  R. A. DiStasio Jr.,  A. Dreuw,  
 B. D. Dunietz,  T. R. Furlani,  W. A. Goddard III,  S. Grimme,  
 S. Hammes-Schiffer,  T. Head-Gordon,  W. J. Hehre,  Chao-Ping Hsu,  
 T.-C. Jagau,  Yousung Jung,  A. Klamt,  Jing Kong,  D. S. Lambrecht,  
 WanZhen Liang,  N. J. Mayhall,  C. W. McCurdy,  J. B. Neaton,  
 C. Ochsenfeld,  J. A. Parkhill,  R. Peverati,  V. A. Rassolov,  Yihan Shao,  
 L. V. Slipchenko,  T. Stauch,  R. P. Steele,  J. E. Subotnik,  
 A. J. W. Thom,  A. Tkatchenko,  D. G. Truhlar,  T. Van Voorhis,  
 T. A. Wesolowski,  K. B. Whaley,  H. L. Woodcock III,  P. M. Zimmerman,  
 S. Faraji,  P. M. W. Gill,  M. Head-Gordon,  J. M. Herbert,  A. I. Krylov

 Additional authors for Version 5.4.1: 
 S. Kotaru,  Shaozhi Li,  Xiangyuan Li,  F. Matz,  A. Molle,  Haisheng Ren,  
 Yingli Su,  Hung-Yi Tsai,  C. Utku,  Fang Wang

 Contributors to earlier versions of Q-Chem not listed above: 
 R. D. Adamson,  B. Austin,  R. Baer,  J. Baker,  G. J. O. Beran,  
 K. Brandhorst,  S. T. Brown,  E. F. C. Byrd,  A. K. Chakraborty,  
 G. K. L. Chan,  Chun-Min Chang,  Yunqing Chen,  C.-L. Cheng,  
 Siu Hung Chien,  D. M. Chipman,  D. L. Crittenden,  H. Dachsel,  
 R. J. Doerksen,  A. D. Dutoi,  R. G. Edgar,  J. Fosso-Tande,  
 L. Fusti-Molnar,  D. Ghosh,  A. Ghysels,  A. Golubeva-Zadorozhnaya,  
 J. Gonthier,  M. S. Gordon,  S. R. Gwaltney,  G. Hawkins,  J. E. Herr,  
 A. Heyden,  S. Hirata,  E. G. Hohenstein,  G. Kedziora,  F. J. Keil,  
 C. Kelley,  Jihan Kim,  R. A. King,  R. Z. Khaliullin,  P. P. Korambath,  
 W. Kurlancheek,  A. Laurent,  A. M. Lee,  M. S. Lee,  S. V. Levchenko,  
 Ching Yeh Lin,  D. Liotard,  E. Livshits,  R. C. Lochan,  I. Lotan,  
 L. A. Martinez-Martinez,  P. E. Maslen,  N. Nair,  D. P. O'Neill,  
 D. Neuhauser,  E. Neuscamman,  C. M. Oana,  R. Olivares-Amaya,  R. Olson,  
 T. M. Perrine,  B. Peters,  P. A. Pieniazek,  A. Prociuk,  Y. M. Rhee,  
 J. Ritchie,  M. A. Rohrdanz,  E. Rosta,  N. J. Russ,  H. F. Schaefer III,  
 M. W. Schmidt,  N. E. Schultz,  S. Sharma,  N. Shenvi,  C. D. Sherrill,  
 A. C. Simmonett,  A. Sodt,  T. Stein,  D. Stuck,  K. S. Thanthiriwatte,  
 V. Vanovschi,  L. Vogt,  Tao Wang,  A. Warshel,  M. A. Watson,  
 C. F. Williams,  Q. Wu,  X. Xu,  Jun Yang,  W. Zhang,  Yan Zhao

 Please cite Q-Chem as follows:
 Y. Shao et al., Mol. Phys. 113, 184-215 (2015)
 DOI: 10.1080/00268976.2014.952696

 Q-Chem 5.4.1 for Intel X86 EM64T Linux

 Parts of Q-Chem use Armadillo 9.800.1 (Horizon Scraper).
 http://arma.sourceforge.net/

 Q-Chem begins on Thu May 26 10:29:08 2022  

 Host: gadi-cpu-clx-0723.gadi.nci.org.au
0

     Scratch files written to /jobfs/41312685.gadi-pbs/qchem547426//
 Processing $rem in /apps/qchem/5.4.1/config/preferences:
 Processing $rem in /home/561/yj5695/.qchemrc:
 Symmetry turned off for PCM/SM12/SMD calculation
 Method-specific promolecule density matrix will be built for SM12 calculation

 Checking the input file for inconsistencies... 	...done.

--------------------------------------------------------------
User input:
--------------------------------------------------------------
$molecule
0  1
C -1.2041495618  0.5711494251 -0.943736323
C -2.3259857384  1.1712498152 -1.5129344825
H -3.167795586  1.4704719954 -0.8959850041
C -2.3452549992  1.3692767731 -2.8918028706
H -3.2120683155  1.8291642058 -3.3555849285
C -1.2572729492  0.9741485331 -3.6715423077
H -1.2795551234  1.1298741779 -4.7458822362
C -0.1419849086  0.3780128446 -3.0811671548
H  0.7003523591  0.0689400939 -3.6918208067
C -0.1059537182  0.1724418286 -1.7037282527
H  0.7540996929 -0.2940080634 -1.2330467018
S -1.1445073844  0.3665847062  0.8211832703
O -2.5185605378  0.3070435756  1.3209284019
O -0.2204130226 -0.7270434969  1.1234252696
N -0.4763997565  1.724050179  1.4876114765
H -1.0426578944  2.5534112386  1.2959385926
H  0.4831804441  1.8667021683  1.1649890578
$end

$rem
jobtype sp
exchange M062X
basis 6-31+G*
SMX_GAS_PHASE = TRUE
solvent_method sm12
$end

$smx
solvent water
charges mk
$end
--------------------------------------------------------------
 ----------------------------------------------------------------
             Standard Nuclear Orientation (Angstroms)
    I     Atom           X                Y                Z
 ----------------------------------------------------------------
    1      C      -1.2041495618     0.5711494251    -0.9437363230
    2      C      -2.3259857384     1.1712498152    -1.5129344825
    3      H      -3.1677955860     1.4704719954    -0.8959850041
    4      C      -2.3452549992     1.3692767731    -2.8918028706
    5      H      -3.2120683155     1.8291642058    -3.3555849285
    6      C      -1.2572729492     0.9741485331    -3.6715423077
    7      H      -1.2795551234     1.1298741779    -4.7458822362
    8      C      -0.1419849086     0.3780128446    -3.0811671548
    9      H       0.7003523591     0.0689400939    -3.6918208067
   10      C      -0.1059537182     0.1724418286    -1.7037282527
   11      H       0.7540996929    -0.2940080634    -1.2330467018
   12      S      -1.1445073844     0.3665847062     0.8211832703
   13      O      -2.5185605378     0.3070435756     1.3209284019
   14      O      -0.2204130226    -0.7270434969     1.1234252696
   15      N      -0.4763997565     1.7240501790     1.4876114765
   16      H      -1.0426578944     2.5534112386     1.2959385926
   17      H       0.4831804441     1.8667021683     1.1649890578
 ----------------------------------------------------------------
 Nuclear Repulsion Energy =         633.01788004 hartrees
 There are       41 alpha and       41 beta electrons
 Requested basis set is 6-31+G(d)
 There are 65 shells and 208 basis functions

 Total QAlloc Memory Limit   2000 MB
 Mega-Array Size       188 MB
 MEM_STATIC part       192 MB
 A cutoff of  1.0D-08 yielded   1817 shell pairs
 There are     19725 function pairs
 Smallest overlap matrix eigenvalue = 3.76E-06

 Q-Chem warning in module stvman/mkSTV.C, line 323:

 Overlap eigenvalue is smaller than square root of threshold
 Use THRESH >= 12 to get rid of this warning


 Scale SEOQF with 1.000000e-01/1.000000e-01/1.000000e-01

 Standard Electronic Orientation quadrupole field applied
 Nucleus-field energy     =    -0.0000000234 hartrees
 ================ Generating on-the-fly Promolecule Density  ================
Attempting to make child job directory: /jobfs/41312685.gadi-pbs/qchem547426//Frg1/
Attempting to make child job directory: /jobfs/41312685.gadi-pbs/qchem547426//Frg2/
Attempting to make child job directory: /jobfs/41312685.gadi-pbs/qchem547426//Frg3/
Attempting to make child job directory: /jobfs/41312685.gadi-pbs/qchem547426//Frg4/
Attempting to make child job directory: /jobfs/41312685.gadi-pbs/qchem547426//Frg5/
Creating input file /jobfs/41312685.gadi-pbs/qchem547426/Frg1.input
using default PutDataFrgm: nothing
calling putenv with: QCSCRATCH=/jobfs/41312685.gadi-pbs/qchem547426/ 
Spawning Job For Fragment 0
Done Job For Fragment 0
calling putenv with: QCSCRATCH=/jobfs/41312685.gadi-pbs 
calling putenv with: QCTHREADS=16 
Creating input file /jobfs/41312685.gadi-pbs/qchem547426/Frg2.input
using default PutDataFrgm: nothing
calling putenv with: QCSCRATCH=/jobfs/41312685.gadi-pbs/qchem547426/ 
Spawning Job For Fragment 1
Done Job For Fragment 1
calling putenv with: QCSCRATCH=/jobfs/41312685.gadi-pbs 
calling putenv with: QCTHREADS=16 
Creating input file /jobfs/41312685.gadi-pbs/qchem547426/Frg3.input
using default PutDataFrgm: nothing
calling putenv with: QCSCRATCH=/jobfs/41312685.gadi-pbs/qchem547426/ 
Spawning Job For Fragment 2
Done Job For Fragment 2
calling putenv with: QCSCRATCH=/jobfs/41312685.gadi-pbs 
calling putenv with: QCTHREADS=16 
Creating input file /jobfs/41312685.gadi-pbs/qchem547426/Frg4.input
using default PutDataFrgm: nothing
calling putenv with: QCSCRATCH=/jobfs/41312685.gadi-pbs/qchem547426/ 
Spawning Job For Fragment 3
Done Job For Fragment 3
calling putenv with: QCSCRATCH=/jobfs/41312685.gadi-pbs 
calling putenv with: QCTHREADS=16 
Creating input file /jobfs/41312685.gadi-pbs/qchem547426/Frg5.input
using default PutDataFrgm: nothing
calling putenv with: QCSCRATCH=/jobfs/41312685.gadi-pbs/qchem547426/ 
Spawning Job For Fragment 4
Done Job For Fragment 4
calling putenv with: QCSCRATCH=/jobfs/41312685.gadi-pbs 
calling putenv with: QCTHREADS=16 
 Time for running child jobs:  CPU 2.30 s  wall 2.05 s
 ============= Method Specific Promolecule Density Constructed =============
 Guess from superposition of atomic densities
 Warning:  Energy on first SCF cycle will be non-variational
 SAD guess density has 82.000000 electrons

 -----------------------------------------------------------------------
  General SCF calculation program by
  Eric Jon Sundstrom, Paul Horn, Yuezhi Mao, Dmitri Zuev, Alec White,
  David Stuck, Shaama M.S., Shane Yost, Joonho Lee, David Small,
  Daniel Levine, Susi Lehtola, Hugh Burton, Evgeny Epifanovsky,
  Bang C. Huynh
 -----------------------------------------------------------------------
 Exchange:     0.5400 Hartree-Fock + 1.0000 M06-2X
 Correlation:  1.0000 M06-2X
 Using SG-3 standard quadrature grid
 using 16 threads for integral computing
 -------------------------------------------------------
 OpenMP Integral computing Module                
 Release: version 1.0, May 2013, Q-Chem Inc. Pittsburgh 
 -------------------------------------------------------
 A restricted SCF calculation will be
 performed using DIIS
 SCF converges when DIIS error is below 1.0e-05
 ---------------------------------------
  Cycle       Energy         DIIS error
 ---------------------------------------
    1    -839.1573690676      5.38e-02  
    2    -835.7270042250      7.11e-03  
    3    -835.5487080446      1.00e-02  
    4    -835.9523567237      1.08e-03  
    5    -835.9575098017      4.32e-04  
    6    -835.9584358741      8.22e-05  
    7    -835.9584705645      3.13e-05  
    8    -835.9584766108      6.70e-06  Convergence criterion met
 ---------------------------------------
 SCF time:   CPU 60.70s  wall 4.00s 
 SCF   energy in the final basis set =     -835.9584766108
 Total energy in the final basis set =     -835.9584766108
 Exchange:     0.5400 Hartree-Fock + 1.0000 M06-2X
 Correlation:  1.0000 M06-2X
 Using SG-3 standard quadrature grid
 
 SM12 calculation using Merz-Singh-Kollman charges
 Citation of the SM12 model:
 Marenich, A.V.; Cramer, C.J.; Truhlar, D.G.
 J. Chem. Theory Comput. 2013, 9, 609-612.
 iSolventCode=           1
 Solvent: water                                                           
 
  Building new vdw surfaces
         Merz-Kollman ESP Net Atomic Charges

     Atom                 Charge (a.u.)
  ----------------------------------------
      1 C                    -0.029419
      2 C                    -0.146901
      3 H                     0.157080
      4 C                    -0.109067
      5 H                     0.145684
      6 C                    -0.147917
      7 H                     0.151938
      8 C                    -0.109762
      9 H                     0.147426
     10 C                    -0.162022
     11 H                     0.162917
     12 S                     0.976684
     13 O                    -0.493142
     14 O                    -0.492658
     15 N                    -0.776262
     16 H                     0.361664
     17 H                     0.363757
  ----------------------------------------
  Sum of atomic charges =     0.000000

  Related Dipole Moment =     6.8019 (X  1.5324 Y  4.3645 Z -4.9869)


 Charges (in A.U.) from Merz-Kollman fitting 
 -----------------------------------------------
 Center     Atomic                  MZ       
 Number     Number                  Charge
 -----------------------------------------------
    1          6                   -0.029419
    2          6                   -0.146901
    3          1                    0.157080
    4          6                   -0.109067
    5          1                    0.145684
    6          6                   -0.147917
    7          1                    0.151938
    8          6                   -0.109762
    9          1                    0.147426
   10          6                   -0.162022
   11          1                    0.162917
   12         16                    0.976684
   13          8                   -0.493142
   14          8                   -0.492658
   15          7                   -0.776262
   16          1                    0.361664
   17          1                    0.363757
 -----------------------------------------------
 A restricted SCF calculation will be
 performed using Roothaan-Hall, DIIS
 SCF converges when DIIS error is below 1.0e-05
 ---------------------------------------
  Cycle       Energy         DIIS error
 ---------------------------------------
         Merz-Kollman ESP Net Atomic Charges

     Atom                 Charge (a.u.)
  ----------------------------------------
      1 C                    -0.012475
      2 C                    -0.168917
      3 H                     0.165137
      4 C                    -0.100429
      5 H                     0.158962
      6 C                    -0.167430
      7 H                     0.168806
      8 C                    -0.101449
      9 H                     0.160701
     10 C                    -0.185522
     11 H                     0.171330
     12 S                     1.021602
     13 O                    -0.551655
     14 O                    -0.550734
     15 N                    -0.768458
     16 H                     0.379243
     17 H                     0.381288
  ----------------------------------------
  Sum of atomic charges =     0.000000

  Related Dipole Moment =     7.9375 (X  1.8084 Y  5.1389 Z -5.7729)


 Charges (in A.U.) from Merz-Kollman fitting 
 -----------------------------------------------
 Center     Atomic                  MZ       
 Number     Number                  Charge
 -----------------------------------------------
    1          6                   -0.012475
    2          6                   -0.168917
    3          1                    0.165137
    4          6                   -0.100429
    5          1                    0.158962
    6          6                   -0.167430
    7          1                    0.168806
    8          6                   -0.101449
    9          1                    0.160701
   10          6                   -0.185522
   11          1                    0.171330
   12         16                    1.021602
   13          8                   -0.551655
   14          8                   -0.550734
   15          7                   -0.768458
   16          1                    0.379243
   17          1                    0.381288
 -----------------------------------------------
    1    -835.9584760392      5.33e-04  Roothaan Step
 ---------------------------------------
  Cycle       Energy         DIIS error
 ---------------------------------------
         Merz-Kollman ESP Net Atomic Charges

     Atom                 Charge (a.u.)
  ----------------------------------------
      1 C                    -0.000705
      2 C                    -0.169257
      3 H                     0.163142
      4 C                    -0.105549
      5 H                     0.163132
      6 C                    -0.169198
      7 H                     0.172346
      8 C                    -0.105975
      9 H                     0.164875
     10 C                    -0.186631
     11 H                     0.169693
     12 S                     0.974145
     13 O                    -0.526636
     14 O                    -0.525806
     15 N                    -0.773247
     16 H                     0.376790
     17 H                     0.378880
  ----------------------------------------
  Sum of atomic charges =     0.000000

  Related Dipole Moment =     7.8135 (X  1.7180 Y  4.9386 Z -5.8059)


 Charges (in A.U.) from Merz-Kollman fitting 
 -----------------------------------------------
 Center     Atomic                  MZ       
 Number     Number                  Charge
 -----------------------------------------------
    1          6                   -0.000705
    2          6                   -0.169257
    3          1                    0.163142
    4          6                   -0.105549
    5          1                    0.163132
    6          6                   -0.169198
    7          1                    0.172346
    8          6                   -0.105975
    9          1                    0.164875
   10          6                   -0.186631
   11          1                    0.169693
   12         16                    0.974145
   13          8                   -0.526636
   14          8                   -0.525806
   15          7                   -0.773247
   16          1                    0.376790
   17          1                    0.378880
 -----------------------------------------------
    1    -835.9540847095      3.80e-04  
         Merz-Kollman ESP Net Atomic Charges

     Atom                 Charge (a.u.)
  ----------------------------------------
      1 C                    -0.001187
      2 C                    -0.169962
      3 H                     0.163888
      4 C                    -0.105051
      5 H                     0.162860
      6 C                    -0.170089
      7 H                     0.172372
      8 C                    -0.105740
      9 H                     0.164615
     10 C                    -0.187423
     11 H                     0.170382
     12 S                     1.016313
     13 O                    -0.549379
     14 O                    -0.548400
     15 N                    -0.770287
     16 H                     0.377513
     17 H                     0.379575
  ----------------------------------------
  Sum of atomic charges =     0.000000

  Related Dipole Moment =     7.9630 (X  1.7814 Y  5.0934 Z -5.8561)


 Charges (in A.U.) from Merz-Kollman fitting 
 -----------------------------------------------
 Center     Atomic                  MZ       
 Number     Number                  Charge
 -----------------------------------------------
    1          6                   -0.001187
    2          6                   -0.169962
    3          1                    0.163888
    4          6                   -0.105051
    5          1                    0.162860
    6          6                   -0.170089
    7          1                    0.172372
    8          6                   -0.105740
    9          1                    0.164615
   10          6                   -0.187423
   11          1                    0.170382
   12         16                    1.016313
   13          8                   -0.549379
   14          8                   -0.548400
   15          7                   -0.770287
   16          1                    0.377513
   17          1                    0.379575
 -----------------------------------------------
    2    -835.9546667741      4.72e-04  
         Merz-Kollman ESP Net Atomic Charges

     Atom                 Charge (a.u.)
  ----------------------------------------
      1 C                    -0.005052
      2 C                    -0.169456
      3 H                     0.164025
      4 C                    -0.104192
      5 H                     0.163348
      6 C                    -0.169418
      7 H                     0.172863
      8 C                    -0.104917
      9 H                     0.165102
     10 C                    -0.186930
     11 H                     0.170519
     12 S                     1.008924
     13 O                    -0.547329
     14 O                    -0.546352
     15 N                    -0.769442
     16 H                     0.378133
     17 H                     0.380174
  ----------------------------------------
  Sum of atomic charges =     0.000000

  Related Dipole Moment =     8.0067 (X  1.7831 Y  5.1070 Z -5.9031)


 Charges (in A.U.) from Merz-Kollman fitting 
 -----------------------------------------------
 Center     Atomic                  MZ       
 Number     Number                  Charge
 -----------------------------------------------
    1          6                   -0.005052
    2          6                   -0.169456
    3          1                    0.164025
    4          6                   -0.104192
    5          1                    0.163348
    6          6                   -0.169418
    7          1                    0.172863
    8          6                   -0.104917
    9          1                    0.165102
   10          6                   -0.186930
   11          1                    0.170519
   12         16                    1.008924
   13          8                   -0.547329
   14          8                   -0.546352
   15          7                   -0.769442
   16          1                    0.378133
   17          1                    0.380174
 -----------------------------------------------
    3    -835.9543299280      4.19e-05  
         Merz-Kollman ESP Net Atomic Charges

     Atom                 Charge (a.u.)
  ----------------------------------------
      1 C                    -0.002219
      2 C                    -0.169732
      3 H                     0.163935
      4 C                    -0.105126
      5 H                     0.163735
      6 C                    -0.170293
      7 H                     0.173302
      8 C                    -0.105797
      9 H                     0.165477
     10 C                    -0.187237
     11 H                     0.170438
     12 S                     1.011522
     13 O                    -0.548490
     14 O                    -0.547498
     15 N                    -0.770213
     16 H                     0.378073
     17 H                     0.380121
  ----------------------------------------
  Sum of atomic charges =     0.000000

  Related Dipole Moment =     8.0048 (X  1.7829 Y  5.1058 Z -5.9016)


 Charges (in A.U.) from Merz-Kollman fitting 
 -----------------------------------------------
 Center     Atomic                  MZ       
 Number     Number                  Charge
 -----------------------------------------------
    1          6                   -0.002219
    2          6                   -0.169732
    3          1                    0.163935
    4          6                   -0.105126
    5          1                    0.163735
    6          6                   -0.170293
    7          1                    0.173302
    8          6                   -0.105797
    9          1                    0.165477
   10          6                   -0.187237
   11          1                    0.170438
   12         16                    1.011522
   13          8                   -0.548490
   14          8                   -0.547498
   15          7                   -0.770213
   16          1                    0.378073
   17          1                    0.380121
 -----------------------------------------------
    4    -835.9542040268      2.13e-05  
    5    -835.9541630324      5.19e-06  Convergence criterion met
 ---------------------------------------
 SCF time:   CPU 57.64s  wall 3.00s 
(0)  E-EN(g) gas-phase elect-nuc energy                 -835.958476611 a.u.
(1)  E-EN(liq) elect-nuc energy of solute               -835.954163032 a.u.
(2)  G-P(liq) polarization free energy of solvation           -18.5187 kcal/mol
(3)  G-ENP(liq) elect-nuc-pol free energy of system     -835.983674486 a.u.
(4)  G-CDS(liq) cavity-dispersion-solvent structure 
     free energy                                                2.6174 kcal/mol
(5)  G-P-CDS(liq) = G-P(liq) + G-CDS(liq) = (2) + (4)         -15.9013 kcal/mol
(6)  G-S(liq) free energy of system = (1) + (5)         -835.979503404 a.u.
(7)  DeltaE-EN(liq) elect-nuc reorganization
     energy of solute molecule (7) = (1) - (0)                  2.7068 kcal/mol
(8)  DeltaG-ENP(liq) elect-nuc-pol free energy
     of solvation (8) = (3) - (0)                             -15.8119 kcal/mol
(9)  DeltaG-S(liq) free energy of  solvation
     (9) = (6) - (0)                                          -13.1945 kcal/mol
 SCF   energy in the final basis set =     -835.9795034042
 Total energy in the final basis set =     -835.9795034042
 
 --------------------------------------------------------------
 
                    Orbital Energies (a.u.)
 --------------------------------------------------------------
 
 Alpha MOs
 -- Occupied --
-90.1747 -19.6582 -19.6581 -14.8056 -10.6053 -10.5849 -10.5849 -10.5773
-10.5761 -10.5759  -8.4888  -6.4110  -6.4106  -6.4096  -1.2585  -1.1450
 -1.0343  -0.9907  -0.8857  -0.8703  -0.7727  -0.7152  -0.6963  -0.6456
 -0.6162  -0.6028  -0.5724  -0.5532  -0.5343  -0.5290  -0.5133  -0.4708
 -0.4518  -0.4346  -0.4286  -0.4201  -0.4053  -0.4006  -0.3809  -0.3311
 -0.3307
 -- Virtual --
 -0.0207  -0.0037  -0.0029   0.0210   0.0298   0.0414   0.0459   0.0522
  0.0627   0.0755   0.0761   0.0780   0.0843   0.0960   0.1069   0.1100
  0.1173   0.1251   0.1308   0.1340   0.1388   0.1440   0.1565   0.1624
  0.1681   0.1688   0.1712   0.1814   0.1865   0.1991   0.2107   0.2126
  0.2182   0.2277   0.2321   0.2353   0.2465   0.2563   0.2573   0.2593
  0.2752   0.2760   0.2830   0.2903   0.2980   0.3086   0.3141   0.3225
  0.3252   0.3432   0.3485   0.3698   0.3751   0.3791   0.3852   0.3942
  0.4463   0.4703   0.5460   0.5542   0.5669   0.6061   0.6607   0.6797
  0.6815   0.7027   0.7131   0.7282   0.7479   0.7534   0.7656   0.7743
  0.7967   0.8084   0.8224   0.8333   0.8820   0.9310   0.9476   0.9597
  0.9811   0.9940   0.9974   1.0095   1.0244   1.0422   1.0627   1.0743
  1.0928   1.1101   1.1179   1.1247   1.1418   1.1481   1.1611   1.1963
  1.2009   1.2406   1.2787   1.3118   1.3264   1.3560   1.3606   1.3679
  1.3879   1.3913   1.3940   1.4074   1.4820   1.4835   1.5025   1.5229
  1.5363   1.5537   1.6045   1.6775   1.6950   1.7925   1.8039   1.8054
  1.8227   1.8548   1.8871   1.9039   1.9049   1.9457   1.9919   2.0127
  2.0363   2.0426   2.1154   2.1246   2.1478   2.1606   2.1740   2.1761
  2.1894   2.1922   2.2330   2.3053   2.3133   2.3240   2.3525   2.4469
  2.4916   2.5906   2.6348   2.6453   2.6862   2.7326   2.7692   2.7716
  2.8447   2.8979   2.9301   3.0379   3.3721   3.8820   4.0724   4.1869
  4.2438   4.2508   4.2587   4.3022   4.4010   4.4096   4.6909
 --------------------------------------------------------------
 
          Ground-State Mulliken Net Atomic Charges

     Atom                 Charge (a.u.)
  ----------------------------------------
      1 C                    -1.157140
      2 C                    -0.164471
      3 H                     0.280944
      4 C                     0.158467
      5 H                     0.276733
      6 C                     0.064700
      7 H                     0.273634
      8 C                     0.143442
      9 H                     0.276801
     10 C                    -0.193578
     11 H                     0.280920
     12 S                     1.096282
     13 O                    -0.764155
     14 O                    -0.763538
     15 N                    -0.816055
     16 H                     0.503396
     17 H                     0.503618
  ----------------------------------------
  Sum of atomic charges =     0.000000

         Merz-Kollman ESP Net Atomic Charges

     Atom                 Charge (a.u.)
  ----------------------------------------
      1 C                    -0.003110
      2 C                    -0.169542
      3 H                     0.163897
      4 C                    -0.105055
      5 H                     0.163711
      6 C                    -0.169905
      7 H                     0.173226
      8 C                    -0.105733
      9 H                     0.165456
     10 C                    -0.187076
     11 H                     0.170407
     12 S                     1.011984
     13 O                    -0.548621
     14 O                    -0.547627
     15 N                    -0.770009
     16 H                     0.377975
     17 H                     0.380022
  ----------------------------------------
  Sum of atomic charges =     0.000000

  Related Dipole Moment =     8.0083 (X  1.7829 Y  5.1068 Z -5.9056)

 -----------------------------------------------------------------
                    Cartesian Multipole Moments
 -----------------------------------------------------------------
    Charge (ESU x 10^10)
                 0.0000
    Dipole Moment (Debye)
         X       1.7392      Y       5.0005      Z      -5.8921
       Tot       7.9212
    Quadrupole Moments (Debye-Ang)
        XX     -66.9924     XY      -5.3265     YY     -59.6188
        XZ       8.8471     YZ       0.8691     ZZ     -59.4347
    Octopole Moments (Debye-Ang^2)
       XXX     234.8872    XXY     -24.7112    XYY      65.7389
       YYY    -104.5794    XXZ      17.0042    XYZ      13.4404
       YYZ      55.9362    XZZ      71.3658    YZZ     -27.6623
       ZZZ      68.5001
    Hexadecapole Moments (Debye-Ang^3)
      XXXX    -937.3312   XXXY     142.2970   XXYY    -189.7432
      XYYY     170.6790   YYYY    -365.8879   XXXZ     -90.7936
      XXYZ      11.3370   XYYZ     -52.1290   YYYZ     182.9724
      XXZZ    -405.9067   XYZZ      20.3165   YYZZ    -348.2806
      XZZZ    -106.8232   YZZZ      66.3928   ZZZZ   -1429.3050
 -----------------------------------------------------------------
 Total job time:  9.91s(wall), 124.43s(cpu) 
 Thu May 26 10:29:17 2022

        *************************************************************
        *                                                           *
        *  Thank you very much for using Q-Chem.  Have a nice day.  *
        *                                                           *
        *************************************************************


