                  Welcome to Q-Chem
     A Quantum Leap Into The Future Of Chemistry


 Q-Chem 5.4 (devel), Q-Chem, Inc., Pleasanton, CA (2021)

 E. Epifanovsky,  A. T. B. Gilbert,  Xintian Feng,  Joonho Lee,  Yuezhi Mao,  
 N. Mardirossian,  P. Pokhilko,  A. White,  M. Wormit,  M. P. Coons,  
 A. L. Dempwolff,  Zhengting Gan,  D. Hait,  P. R. Horn,  L. D. Jacobson,  
 I. Kaliman,  J. Kussmann,  A. W. Lange,  Ka Un Lao,  D. S. Levine,  Jie Liu,  
 S. C. McKenzie,  A. F. Morrison,  K. Nanda,  F. Plasser,  D. R. Rehn,  
 M. L. Vidal,  Zhi-Qiang You,  Ying Zhu,  B. Alam,  B. Albrecht,  
 A. Aldossary,  E. Alguire,  J. H. Andersen,  D. Barton,  K. Begam,  A. Behn,  
 Y. A. Bernard,  E. J. Berquist,  H. Burton,  A. Carreras,  K. Carter-Fenk,  
 R. Chakraborty,  A. D. Chien,  K. D. Closser,  V. Cofer-Shabica,  
 S. Dasgupta,  Jia Deng,  M. de Wergifosse,  M. Diedenhofen,  Hainam Do,  
 S. Ehlert,  Po-Tung Fang,  S. Fatehi,  Qingguo Feng,  T. Friedhoff,  
 J. Gayvert,  Qinghui Ge,  G. Gidofalvi,  M. Goldey,  J. Gomes,  
 C. Gonzalez-Espinoza,  S. Gulania,  A. Gunina,  M. W. D. Hanson-Heine,  
 P. H. P. Harbach,  A. W. Hauser,  M. F. Herbst,  M. Hernandez Vera,  
 M. Hodecker,  Z. C. Holden,  S. Houck,  Xunkun Huang,  Kerwin Hui,  
 B. C. Huynh,  M. Ivanov,  Hyunjun Ji,  Hanjie Jiang,  B. Kaduk,  S. Kaehler,  
 K. Khistyaev,  Jaehoon Kim,  P. Klunzinger,  Z. Koczor-Benda,  
 Joong Hoon Koh,  D. Kosenkov,  L. Koulias,  T. Kowalczyk,  C. M. Krauter,  
 K. Kue,  A. Kunitsa,  T. Kus,  A. Landau,  K. V. Lawler,  D. Lefrancois,  
 S. Lehtola,  Rain Li,  Yi-Pei Li,  Jiashu Liang,  M. Liebenthal,  
 Hung-Hsuan Lin,  You-Sheng Lin,  Fenglai Liu,  Kuan-Yu Liu,  
 M. Loipersberger,  A. Luenser,  A. Manjanath,  P. Manohar,  E. Mansoor,  
 S. F. Manzer,  Shan-Ping Mao,  A. V. Marenich,  T. Markovich,  S. Mason,  
 S. A. Maurer,  P. F. McLaughlin,  M. F. S. J. Menger,  J.-M. Mewes,  
 S. A. Mewes,  P. Morgante,  J. W. Mullinax,  K. J. Oosterbaan,  G. Paran,  
 Alexander C. Paul,  Suranjan K. Paul,  F. Pavosevic,  Zheng Pei,  S. Prager,  
 E. I. Proynov,  E. Ramos,  B. Rana,  A. E. Rask,  A. Rettig,  R. M. Richard,  
 F. Rob,  E. Rossomme,  T. Scheele,  M. Scheurer,  M. Schneider,  
 N. Sergueev,  S. M. Sharada,  W. Skomorowski,  D. W. Small,  C. J. Stein,  
 Yu-Chuan Su,  E. J. Sundstrom,  Zhen Tao,  J. Thirman,  T. Tsuchimochi,  
 N. M. Tubman,  S. P. Veccham,  O. Vydrov,  J. Wenzel,  J. Witte,  A. Yamada,  
 Kun Yao,  S. Yeganeh,  S. R. Yost,  A. Zech,  Igor Ying Zhang,  Xing Zhang,  
 Yu Zhang,  D. Zuev,  A. Aspuru-Guzik,  A. T. Bell,  N. A. Besley,  
 K. B. Bravaya,  B. R. Brooks,  D. Casanova,  Jeng-Da Chai,  S. Coriani,  
 C. J. Cramer,  A. E. DePrince, III,  R. A. DiStasio Jr.,  A. Dreuw,  
 B. D. Dunietz,  T. R. Furlani,  W. A. Goddard III,  S. Grimme,  
 S. Hammes-Schiffer,  T. Head-Gordon,  W. J. Hehre,  Chao-Ping Hsu,  
 T.-C. Jagau,  Yousung Jung,  A. Klamt,  Jing Kong,  D. S. Lambrecht,  
 WanZhen Liang,  N. J. Mayhall,  C. W. McCurdy,  J. B. Neaton,  
 C. Ochsenfeld,  J. A. Parkhill,  R. Peverati,  V. A. Rassolov,  Yihan Shao,  
 L. V. Slipchenko,  T. Stauch,  R. P. Steele,  J. E. Subotnik,  
 A. J. W. Thom,  A. Tkatchenko,  D. G. Truhlar,  T. Van Voorhis,  
 T. A. Wesolowski,  K. B. Whaley,  H. L. Woodcock III,  P. M. Zimmerman,  
 S. Faraji,  P. M. W. Gill,  M. Head-Gordon,  J. M. Herbert,  A. I. Krylov

 Additional authors for Version 5.4.1: 
 S. Kotaru,  Shaozhi Li,  Xiangyuan Li,  F. Matz,  A. Molle,  Haisheng Ren,  
 Yingli Su,  Hung-Yi Tsai,  C. Utku,  Fang Wang

 Contributors to earlier versions of Q-Chem not listed above: 
 R. D. Adamson,  B. Austin,  R. Baer,  J. Baker,  G. J. O. Beran,  
 K. Brandhorst,  S. T. Brown,  E. F. C. Byrd,  A. K. Chakraborty,  
 G. K. L. Chan,  Chun-Min Chang,  Yunqing Chen,  C.-L. Cheng,  
 Siu Hung Chien,  D. M. Chipman,  D. L. Crittenden,  H. Dachsel,  
 R. J. Doerksen,  A. D. Dutoi,  R. G. Edgar,  J. Fosso-Tande,  
 L. Fusti-Molnar,  D. Ghosh,  A. Ghysels,  A. Golubeva-Zadorozhnaya,  
 J. Gonthier,  M. S. Gordon,  S. R. Gwaltney,  G. Hawkins,  J. E. Herr,  
 A. Heyden,  S. Hirata,  E. G. Hohenstein,  G. Kedziora,  F. J. Keil,  
 C. Kelley,  Jihan Kim,  R. A. King,  R. Z. Khaliullin,  P. P. Korambath,  
 W. Kurlancheek,  A. Laurent,  A. M. Lee,  M. S. Lee,  S. V. Levchenko,  
 Ching Yeh Lin,  D. Liotard,  E. Livshits,  R. C. Lochan,  I. Lotan,  
 L. A. Martinez-Martinez,  P. E. Maslen,  N. Nair,  D. P. O'Neill,  
 D. Neuhauser,  E. Neuscamman,  C. M. Oana,  R. Olivares-Amaya,  R. Olson,  
 T. M. Perrine,  B. Peters,  P. A. Pieniazek,  A. Prociuk,  Y. M. Rhee,  
 J. Ritchie,  M. A. Rohrdanz,  E. Rosta,  N. J. Russ,  H. F. Schaefer III,  
 M. W. Schmidt,  N. E. Schultz,  S. Sharma,  N. Shenvi,  C. D. Sherrill,  
 A. C. Simmonett,  A. Sodt,  T. Stein,  D. Stuck,  K. S. Thanthiriwatte,  
 V. Vanovschi,  L. Vogt,  Tao Wang,  A. Warshel,  M. A. Watson,  
 C. F. Williams,  Q. Wu,  X. Xu,  Jun Yang,  W. Zhang,  Yan Zhao

 Please cite Q-Chem as follows:
 Y. Shao et al., Mol. Phys. 113, 184-215 (2015)
 DOI: 10.1080/00268976.2014.952696

 Q-Chem 5.4.1 for Intel X86 EM64T Linux

 Parts of Q-Chem use Armadillo 9.800.1 (Horizon Scraper).
 http://arma.sourceforge.net/

 Q-Chem begins on Wed Jun 29 13:40:20 2022  

 Host: gadi-cpu-clx-1191.gadi.nci.org.au
0

     Scratch files written to /jobfs/48735417.gadi-pbs/qchem1671735//
 Processing $rem in /apps/qchem/5.4.1/config/preferences:
 Processing $rem in /home/561/yj5695/.qchemrc:
 Symmetry turned off for PCM/SM12/SMD calculation
 Method-specific promolecule density matrix will be built for SM12 calculation

 Checking the input file for inconsistencies... 	...done.

--------------------------------------------------------------
User input:
--------------------------------------------------------------
$molecule
0  1
C -1.0665620152  0.6171588435 -1.0022100851
C -2.1848571557  1.1277850731 -1.6755955192
H -3.1223047924  1.283984397 -1.1492610476
C -2.092388947  1.4225836008 -3.0207186076
H -2.9558792439  1.8112296806 -3.5539460525
C -0.8813119408  1.2192894111 -3.7267696687
N -0.8060049157  1.5461695965 -5.0492200049
C  0.2310507762  0.7001760324 -3.028874357
H  1.1679930361  0.5223639948 -3.5450418113
C  0.1374205997  0.4104291029 -1.6748124422
H  0.9994445181  0.0115309378 -1.148412154
S -1.1698394447  0.3037886412  0.7242549033
O -2.5506057462 -0.0694324346  1.0478061842
O -0.0788284309 -0.6006582783  1.0990903852
N -0.8902121435  1.7078748039  1.5647021843
H -1.6007886072  2.4111804896  1.350703491
H  0.0394460496  2.0798733452  1.3591084688
C  0.3110659178  1.1394149625 -5.8807681555
H -1.6889985394  1.7048138623 -5.5188209126
H  0.4730808776  0.0542403727 -5.8511509811
H  1.2326399605  1.6369898719 -5.5644526164
H  0.0983141868  1.435054693 -6.9079352012
$end

$rem
jobtype sp
exchange M062X
basis 6-31+G*
SMX_GAS_PHASE = TRUE
solvent_method sm12
$end

$smx
solvent water
charges mk
$end
--------------------------------------------------------------
 ----------------------------------------------------------------
             Standard Nuclear Orientation (Angstroms)
    I     Atom           X                Y                Z
 ----------------------------------------------------------------
    1      C      -1.0665620152     0.6171588435    -1.0022100851
    2      C      -2.1848571557     1.1277850731    -1.6755955192
    3      H      -3.1223047924     1.2839843970    -1.1492610476
    4      C      -2.0923889470     1.4225836008    -3.0207186076
    5      H      -2.9558792439     1.8112296806    -3.5539460525
    6      C      -0.8813119408     1.2192894111    -3.7267696687
    7      N      -0.8060049157     1.5461695965    -5.0492200049
    8      C       0.2310507762     0.7001760324    -3.0288743570
    9      H       1.1679930361     0.5223639948    -3.5450418113
   10      C       0.1374205997     0.4104291029    -1.6748124422
   11      H       0.9994445181     0.0115309378    -1.1484121540
   12      S      -1.1698394447     0.3037886412     0.7242549033
   13      O      -2.5506057462    -0.0694324346     1.0478061842
   14      O      -0.0788284309    -0.6006582783     1.0990903852
   15      N      -0.8902121435     1.7078748039     1.5647021843
   16      H      -1.6007886072     2.4111804896     1.3507034910
   17      H       0.0394460496     2.0798733452     1.3591084688
   18      C       0.3110659178     1.1394149625    -5.8807681555
   19      H      -1.6889985394     1.7048138623    -5.5188209126
   20      H       0.4730808776     0.0542403727    -5.8511509811
   21      H       1.2326399605     1.6369898719    -5.5644526164
   22      H       0.0983141868     1.4350546930    -6.9079352012
 ----------------------------------------------------------------
 Nuclear Repulsion Energy =         823.05075518 hartrees
 There are       49 alpha and       49 beta electrons
 Requested basis set is 6-31+G(d)
 There are 81 shells and 252 basis functions

 Total QAlloc Memory Limit   2000 MB
 Mega-Array Size       188 MB
 MEM_STATIC part       192 MB
 A cutoff of  1.0D-08 yielded   2548 shell pairs
 There are     26478 function pairs
 Smallest overlap matrix eigenvalue = 2.01E-06

 Q-Chem warning in module stvman/mkSTV.C, line 323:

 Overlap eigenvalue is smaller than square root of threshold
 Use THRESH >= 12 to get rid of this warning


 Scale SEOQF with 1.000000e-01/1.000000e-01/1.000000e-02

 Standard Electronic Orientation quadrupole field applied
 Nucleus-field energy     =     0.0000000051 hartrees
 ================ Generating on-the-fly Promolecule Density  ================
Attempting to make child job directory: /jobfs/48735417.gadi-pbs/qchem1671735//Frg1/
Attempting to make child job directory: /jobfs/48735417.gadi-pbs/qchem1671735//Frg2/
Attempting to make child job directory: /jobfs/48735417.gadi-pbs/qchem1671735//Frg3/
Attempting to make child job directory: /jobfs/48735417.gadi-pbs/qchem1671735//Frg4/
Attempting to make child job directory: /jobfs/48735417.gadi-pbs/qchem1671735//Frg5/
Creating input file /jobfs/48735417.gadi-pbs/qchem1671735/Frg1.input
using default PutDataFrgm: nothing
calling putenv with: QCSCRATCH=/jobfs/48735417.gadi-pbs/qchem1671735/ 
Spawning Job For Fragment 0
Done Job For Fragment 0
calling putenv with: QCSCRATCH=/jobfs/48735417.gadi-pbs 
calling putenv with: QCTHREADS=8 
Creating input file /jobfs/48735417.gadi-pbs/qchem1671735/Frg2.input
using default PutDataFrgm: nothing
calling putenv with: QCSCRATCH=/jobfs/48735417.gadi-pbs/qchem1671735/ 
Spawning Job For Fragment 1
Done Job For Fragment 1
calling putenv with: QCSCRATCH=/jobfs/48735417.gadi-pbs 
calling putenv with: QCTHREADS=8 
Creating input file /jobfs/48735417.gadi-pbs/qchem1671735/Frg3.input
using default PutDataFrgm: nothing
calling putenv with: QCSCRATCH=/jobfs/48735417.gadi-pbs/qchem1671735/ 
Spawning Job For Fragment 2
Done Job For Fragment 2
calling putenv with: QCSCRATCH=/jobfs/48735417.gadi-pbs 
calling putenv with: QCTHREADS=8 
Creating input file /jobfs/48735417.gadi-pbs/qchem1671735/Frg4.input
using default PutDataFrgm: nothing
calling putenv with: QCSCRATCH=/jobfs/48735417.gadi-pbs/qchem1671735/ 
Spawning Job For Fragment 3
Done Job For Fragment 3
calling putenv with: QCSCRATCH=/jobfs/48735417.gadi-pbs 
calling putenv with: QCTHREADS=8 
Creating input file /jobfs/48735417.gadi-pbs/qchem1671735/Frg5.input
using default PutDataFrgm: nothing
calling putenv with: QCSCRATCH=/jobfs/48735417.gadi-pbs/qchem1671735/ 
Spawning Job For Fragment 4
Done Job For Fragment 4
calling putenv with: QCSCRATCH=/jobfs/48735417.gadi-pbs 
calling putenv with: QCTHREADS=8 
 Time for running child jobs:  CPU 0.86 s  wall 2.26 s
 ============= Method Specific Promolecule Density Constructed =============
 Guess from superposition of atomic densities
 Warning:  Energy on first SCF cycle will be non-variational
 SAD guess density has 98.000000 electrons

 -----------------------------------------------------------------------
  General SCF calculation program by
  Eric Jon Sundstrom, Paul Horn, Yuezhi Mao, Dmitri Zuev, Alec White,
  David Stuck, Shaama M.S., Shane Yost, Joonho Lee, David Small,
  Daniel Levine, Susi Lehtola, Hugh Burton, Evgeny Epifanovsky,
  Bang C. Huynh
 -----------------------------------------------------------------------
 Exchange:     0.5400 Hartree-Fock + 1.0000 M06-2X
 Correlation:  1.0000 M06-2X
 Using SG-3 standard quadrature grid
 using 8 threads for integral computing
 -------------------------------------------------------
 OpenMP Integral computing Module                
 Release: version 1.0, May 2013, Q-Chem Inc. Pittsburgh 
 -------------------------------------------------------
 A restricted SCF calculation will be
 performed using DIIS
 SCF converges when DIIS error is below 1.0e-05
 ---------------------------------------
  Cycle       Energy         DIIS error
 ---------------------------------------
    1    -934.4369121127      4.89e-02  
    2    -930.3381582647      6.01e-03  
    3    -930.1952418310      8.10e-03  
    4    -930.5762771371      1.01e-03  
    5    -930.5826542887      3.96e-04  
    6    -930.5837769146      1.07e-04  
    7    -930.5838644060      3.13e-05  
    8    -930.5838723475      7.94e-06  Convergence criterion met
 ---------------------------------------
 SCF time:   CPU 76.55s  wall 10.00s 
 SCF   energy in the final basis set =     -930.5838723475
 Total energy in the final basis set =     -930.5838723475
 Exchange:     0.5400 Hartree-Fock + 1.0000 M06-2X
 Correlation:  1.0000 M06-2X
 Using SG-3 standard quadrature grid
 
 SM12 calculation using Merz-Singh-Kollman charges
 Citation of the SM12 model:
 Marenich, A.V.; Cramer, C.J.; Truhlar, D.G.
 J. Chem. Theory Comput. 2013, 9, 609-612.
 iSolventCode=           1
 Solvent: water                                                           
 
  Building new vdw surfaces
         Merz-Kollman ESP Net Atomic Charges

     Atom                 Charge (a.u.)
  ----------------------------------------
      1 C                    -0.241555
      2 C                     0.021135
      3 H                     0.153337
      4 C                    -0.487263
      5 H                     0.200551
      6 C                     0.507341
      7 N                    -0.636889
      8 C                    -0.197830
      9 H                     0.146729
     10 C                    -0.172820
     11 H                     0.187010
     12 S                     1.086406
     13 O                    -0.523095
     14 O                    -0.516482
     15 N                    -0.831373
     16 H                     0.371855
     17 H                     0.378596
     18 C                    -0.172970
     19 H                     0.390364
     20 H                     0.099766
     21 H                     0.104888
     22 H                     0.132297
  ----------------------------------------
  Sum of atomic charges =     0.000000

  Related Dipole Moment =     9.0506 (X  1.2229 Y  4.9043 Z -7.5077)


 Charges (in A.U.) from Merz-Kollman fitting 
 -----------------------------------------------
 Center     Atomic                  MZ       
 Number     Number                  Charge
 -----------------------------------------------
    1          6                   -0.241555
    2          6                    0.021135
    3          1                    0.153337
    4          6                   -0.487263
    5          1                    0.200551
    6          6                    0.507341
    7          7                   -0.636889
    8          6                   -0.197830
    9          1                    0.146729
   10          6                   -0.172820
   11          1                    0.187010
   12         16                    1.086406
   13          8                   -0.523095
   14          8                   -0.516482
   15          7                   -0.831373
   16          1                    0.371855
   17          1                    0.378596
   18          6                   -0.172970
   19          1                    0.390364
   20          1                    0.099766
   21          1                    0.104888
   22          1                    0.132297
 -----------------------------------------------
 A restricted SCF calculation will be
 performed using Roothaan-Hall, DIIS
 SCF converges when DIIS error is below 1.0e-05
 ---------------------------------------
  Cycle       Energy         DIIS error
 ---------------------------------------
         Merz-Kollman ESP Net Atomic Charges

     Atom                 Charge (a.u.)
  ----------------------------------------
      1 C                    -0.245072
      2 C                    -0.011367
      3 H                     0.164822
      4 C                    -0.487481
      5 H                     0.217814
      6 C                     0.523521
      7 N                    -0.634288
      8 C                    -0.192914
      9 H                     0.159149
     10 C                    -0.208092
     11 H                     0.195850
     12 S                     1.129478
     13 O                    -0.581432
     14 O                    -0.573828
     15 N                    -0.826551
     16 H                     0.390674
     17 H                     0.396799
     18 C                    -0.171880
     19 H                     0.407392
     20 H                     0.100139
     21 H                     0.104358
     22 H                     0.142909
  ----------------------------------------
  Sum of atomic charges =     0.000000

  Related Dipole Moment =    10.8544 (X  1.3813 Y  5.9317 Z -8.9847)


 Charges (in A.U.) from Merz-Kollman fitting 
 -----------------------------------------------
 Center     Atomic                  MZ       
 Number     Number                  Charge
 -----------------------------------------------
    1          6                   -0.245072
    2          6                   -0.011367
    3          1                    0.164822
    4          6                   -0.487481
    5          1                    0.217814
    6          6                    0.523521
    7          7                   -0.634288
    8          6                   -0.192914
    9          1                    0.159149
   10          6                   -0.208092
   11          1                    0.195850
   12         16                    1.129478
   13          8                   -0.581432
   14          8                   -0.573828
   15          7                   -0.826551
   16          1                    0.390674
   17          1                    0.396799
   18          6                   -0.171880
   19          1                    0.407392
   20          1                    0.100139
   21          1                    0.104358
   22          1                    0.142909
 -----------------------------------------------
    1    -930.5838721876      4.82e-04  Roothaan Step
 ---------------------------------------
  Cycle       Energy         DIIS error
 ---------------------------------------
         Merz-Kollman ESP Net Atomic Charges

     Atom                 Charge (a.u.)
  ----------------------------------------
      1 C                    -0.217762
      2 C                    -0.010001
      3 H                     0.162081
      4 C                    -0.500843
      5 H                     0.222813
      6 C                     0.529553
      7 N                    -0.658064
      8 C                    -0.209396
      9 H                     0.164324
     10 C                    -0.201099
     11 H                     0.191860
     12 S                     1.095825
     13 O                    -0.563223
     14 O                    -0.556490
     15 N                    -0.839210
     16 H                     0.389671
     17 H                     0.395273
     18 C                    -0.162726
     19 H                     0.416242
     20 H                     0.102751
     21 H                     0.103655
     22 H                     0.144766
  ----------------------------------------
  Sum of atomic charges =     0.000000

  Related Dipole Moment =    10.7896 (X  1.3598 Y  5.6798 Z -9.0723)


 Charges (in A.U.) from Merz-Kollman fitting 
 -----------------------------------------------
 Center     Atomic                  MZ       
 Number     Number                  Charge
 -----------------------------------------------
    1          6                   -0.217762
    2          6                   -0.010001
    3          1                    0.162081
    4          6                   -0.500843
    5          1                    0.222813
    6          6                    0.529553
    7          7                   -0.658064
    8          6                   -0.209396
    9          1                    0.164324
   10          6                   -0.201099
   11          1                    0.191860
   12         16                    1.095825
   13          8                   -0.563223
   14          8                   -0.556490
   15          7                   -0.839210
   16          1                    0.389671
   17          1                    0.395273
   18          6                   -0.162726
   19          1                    0.416242
   20          1                    0.102751
   21          1                    0.103655
   22          1                    0.144766
 -----------------------------------------------
    1    -930.5783941745      3.26e-04  
         Merz-Kollman ESP Net Atomic Charges

     Atom                 Charge (a.u.)
  ----------------------------------------
      1 C                    -0.232526
      2 C                    -0.011021
      3 H                     0.163370
      4 C                    -0.499936
      5 H                     0.222611
      6 C                     0.534552
      7 N                    -0.647319
      8 C                    -0.206833
      9 H                     0.163684
     10 C                    -0.204393
     11 H                     0.193418
     12 S                     1.133942
     13 O                    -0.583717
     14 O                    -0.576356
     15 N                    -0.833531
     16 H                     0.389914
     17 H                     0.395725
     18 C                    -0.168586
     19 H                     0.413430
     20 H                     0.102763
     21 H                     0.104939
     22 H                     0.145870
  ----------------------------------------
  Sum of atomic charges =     0.000000

  Related Dipole Moment =    11.0363 (X  1.4029 Y  5.8889 Z -9.2279)


 Charges (in A.U.) from Merz-Kollman fitting 
 -----------------------------------------------
 Center     Atomic                  MZ       
 Number     Number                  Charge
 -----------------------------------------------
    1          6                   -0.232526
    2          6                   -0.011021
    3          1                    0.163370
    4          6                   -0.499936
    5          1                    0.222611
    6          6                    0.534552
    7          7                   -0.647319
    8          6                   -0.206833
    9          1                    0.163684
   10          6                   -0.204393
   11          1                    0.193418
   12         16                    1.133942
   13          8                   -0.583717
   14          8                   -0.576356
   15          7                   -0.833531
   16          1                    0.389914
   17          1                    0.395725
   18          6                   -0.168586
   19          1                    0.413430
   20          1                    0.102763
   21          1                    0.104939
   22          1                    0.145870
 -----------------------------------------------
    2    -930.5788432112      3.74e-04  
         Merz-Kollman ESP Net Atomic Charges

     Atom                 Charge (a.u.)
  ----------------------------------------
      1 C                    -0.235379
      2 C                    -0.011236
      3 H                     0.163562
      4 C                    -0.499509
      5 H                     0.223226
      6 C                     0.535119
      7 N                    -0.646039
      8 C                    -0.207043
      9 H                     0.164294
     10 C                    -0.203971
     11 H                     0.193474
     12 S                     1.125314
     13 O                    -0.581211
     14 O                    -0.573957
     15 N                    -0.833935
     16 H                     0.390767
     17 H                     0.396480
     18 C                    -0.168739
     19 H                     0.413875
     20 H                     0.103247
     21 H                     0.105197
     22 H                     0.146464
  ----------------------------------------
  Sum of atomic charges =     0.000000

  Related Dipole Moment =    11.1298 (X  1.4115 Y  5.9060 Z -9.3274)


 Charges (in A.U.) from Merz-Kollman fitting 
 -----------------------------------------------
 Center     Atomic                  MZ       
 Number     Number                  Charge
 -----------------------------------------------
    1          6                   -0.235379
    2          6                   -0.011236
    3          1                    0.163562
    4          6                   -0.499509
    5          1                    0.223226
    6          6                    0.535119
    7          7                   -0.646039
    8          6                   -0.207043
    9          1                    0.164294
   10          6                   -0.203971
   11          1                    0.193474
   12         16                    1.125314
   13          8                   -0.581211
   14          8                   -0.573957
   15          7                   -0.833935
   16          1                    0.390767
   17          1                    0.396480
   18          6                   -0.168739
   19          1                    0.413875
   20          1                    0.103247
   21          1                    0.105197
   22          1                    0.146464
 -----------------------------------------------
    3    -930.5782363023      4.29e-05  
         Merz-Kollman ESP Net Atomic Charges

     Atom                 Charge (a.u.)
  ----------------------------------------
      1 C                    -0.233491
      2 C                    -0.010603
      3 H                     0.163322
      4 C                    -0.501448
      5 H                     0.223626
      6 C                     0.535860
      7 N                    -0.646820
      8 C                    -0.209506
      9 H                     0.164782
     10 C                    -0.202983
     11 H                     0.193160
     12 S                     1.129396
     13 O                    -0.583037
     14 O                    -0.575742
     15 N                    -0.834841
     16 H                     0.390663
     17 H                     0.396358
     18 C                    -0.169200
     19 H                     0.414374
     20 H                     0.103689
     21 H                     0.105513
     22 H                     0.146931
  ----------------------------------------
  Sum of atomic charges =     0.000000

  Related Dipole Moment =    11.1420 (X  1.4147 Y  5.9064 Z -9.3412)


 Charges (in A.U.) from Merz-Kollman fitting 
 -----------------------------------------------
 Center     Atomic                  MZ       
 Number     Number                  Charge
 -----------------------------------------------
    1          6                   -0.233491
    2          6                   -0.010603
    3          1                    0.163322
    4          6                   -0.501448
    5          1                    0.223626
    6          6                    0.535860
    7          7                   -0.646820
    8          6                   -0.209506
    9          1                    0.164782
   10          6                   -0.202983
   11          1                    0.193160
   12         16                    1.129396
   13          8                   -0.583037
   14          8                   -0.575742
   15          7                   -0.834841
   16          1                    0.390663
   17          1                    0.396358
   18          6                   -0.169200
   19          1                    0.414374
   20          1                    0.103689
   21          1                    0.105513
   22          1                    0.146931
 -----------------------------------------------
    4    -930.5779697143      2.40e-05  
    5    -930.5778911641      6.12e-06  Convergence criterion met
 ---------------------------------------
 SCF time:   CPU 65.33s  wall 12.00s 
(0)  E-EN(g) gas-phase elect-nuc energy                 -930.583872348 a.u.
(1)  E-EN(liq) elect-nuc energy of solute               -930.577891164 a.u.
(2)  G-P(liq) polarization free energy of solvation           -23.5953 kcal/mol
(3)  G-ENP(liq) elect-nuc-pol free energy of system     -930.615492589 a.u.
(4)  G-CDS(liq) cavity-dispersion-solvent structure 
     free energy                                                1.8695 kcal/mol
(5)  G-P-CDS(liq) = G-P(liq) + G-CDS(liq) = (2) + (4)         -21.7258 kcal/mol
(6)  G-S(liq) free energy of system = (1) + (5)         -930.612513378 a.u.
(7)  DeltaE-EN(liq) elect-nuc reorganization
     energy of solute molecule (7) = (1) - (0)                  3.7532 kcal/mol
(8)  DeltaG-ENP(liq) elect-nuc-pol free energy
     of solvation (8) = (3) - (0)                             -19.8420 kcal/mol
(9)  DeltaG-S(liq) free energy of  solvation
     (9) = (6) - (0)                                          -17.9725 kcal/mol
 SCF   energy in the final basis set =     -930.6125133780
 Total energy in the final basis set =     -930.6125133780
 
 --------------------------------------------------------------
 
                    Orbital Energies (a.u.)
 --------------------------------------------------------------
 
 Alpha MOs
 -- Occupied --
-90.1708 -19.6545 -19.6538 -14.8020 -14.7883 -10.6172 -10.5893 -10.5825
-10.5825 -10.5768 -10.5676 -10.5651  -8.4847  -6.4069  -6.4066  -6.4054
 -1.2534  -1.1400  -1.0633  -1.0294  -0.9742  -0.8737  -0.8673  -0.7981
 -0.7516  -0.7150  -0.6858  -0.6424  -0.6194  -0.6116  -0.5887  -0.5677
 -0.5367  -0.5348  -0.5220  -0.5117  -0.5033  -0.4831  -0.4657  -0.4538
 -0.4311  -0.4205  -0.4159  -0.4098  -0.3969  -0.3837  -0.3697  -0.3303
 -0.2655
 -- Virtual --
 -0.0084  -0.0037   0.0019   0.0105   0.0242   0.0319   0.0399   0.0464
  0.0560   0.0639   0.0655   0.0702   0.0819   0.0837   0.0924   0.0966
  0.1011   0.1064   0.1111   0.1260   0.1275   0.1277   0.1367   0.1398
  0.1518   0.1542   0.1561   0.1597   0.1713   0.1730   0.1803   0.1865
  0.1985   0.2022   0.2051   0.2119   0.2151   0.2188   0.2230   0.2317
  0.2419   0.2430   0.2485   0.2565   0.2620   0.2638   0.2699   0.2733
  0.2744   0.2858   0.2907   0.2955   0.2988   0.3041   0.3100   0.3171
  0.3203   0.3224   0.3315   0.3427   0.3603   0.3695   0.3796   0.3882
  0.4007   0.4081   0.4213   0.4295   0.4349   0.4714   0.4854   0.5444
  0.5569   0.5697   0.6308   0.6710   0.6831   0.6905   0.7094   0.7164
  0.7250   0.7428   0.7549   0.7588   0.7653   0.7710   0.7934   0.8109
  0.8285   0.8350   0.8904   0.8975   0.9288   0.9416   0.9604   0.9661
  0.9912   1.0007   1.0062   1.0141   1.0268   1.0376   1.0573   1.0643
  1.0733   1.0942   1.0982   1.1090   1.1164   1.1248   1.1302   1.1475
  1.1568   1.1686   1.1845   1.1926   1.2063   1.2378   1.2551   1.2839
  1.3105   1.3235   1.3478   1.3589   1.3678   1.3728   1.3849   1.3977
  1.4026   1.4115   1.4134   1.4462   1.4962   1.5079   1.5228   1.5430
  1.5549   1.6130   1.6485   1.6891   1.7013   1.7352   1.8001   1.8055
  1.8185   1.8378   1.8590   1.8822   1.8959   1.9044   1.9251   1.9528
  1.9761   2.0063   2.0311   2.0435   2.0515   2.0829   2.1131   2.1259
  2.1489   2.1620   2.1679   2.1764   2.1951   2.2311   2.2464   2.2614
  2.2977   2.3174   2.3297   2.3443   2.3754   2.4447   2.4910   2.5018
  2.5460   2.5704   2.5966   2.6576   2.7072   2.7258   2.7784   2.7957
  2.8121   2.8992   2.9062   2.9429   2.9593   3.1775   3.3847   3.8841
  4.0830   4.1628   4.2213   4.2543   4.2733   4.3108   4.3570   4.3969
  4.4155   4.4699   4.7362
 --------------------------------------------------------------
 
          Ground-State Mulliken Net Atomic Charges

     Atom                 Charge (a.u.)
  ----------------------------------------
      1 C                    -1.906341
      2 C                    -0.365783
      3 H                     0.274505
      4 C                     0.043335
      5 H                     0.265337
      6 C                     1.211251
      7 N                    -0.523650
      8 C                     1.610538
      9 H                     0.259962
     10 C                    -1.843381
     11 H                     0.271179
     12 S                     1.104710
     13 O                    -0.758516
     14 O                    -0.773723
     15 N                    -0.822080
     16 H                     0.501268
     17 H                     0.503830
     18 C                    -0.231990
     19 H                     0.468427
     20 H                     0.230204
     21 H                     0.228896
     22 H                     0.252025
  ----------------------------------------
  Sum of atomic charges =     0.000000

         Merz-Kollman ESP Net Atomic Charges

     Atom                 Charge (a.u.)
  ----------------------------------------
      1 C                    -0.234874
      2 C                    -0.010437
      3 H                     0.163296
      4 C                    -0.501541
      5 H                     0.223585
      6 C                     0.536690
      7 N                    -0.646450
      8 C                    -0.209587
      9 H                     0.164740
     10 C                    -0.202768
     11 H                     0.193127
     12 S                     1.130033
     13 O                    -0.583160
     14 O                    -0.575874
     15 N                    -0.834791
     16 H                     0.390563
     17 H                     0.396265
     18 C                    -0.169484
     19 H                     0.414284
     20 H                     0.103788
     21 H                     0.105605
     22 H                     0.146989
  ----------------------------------------
  Sum of atomic charges =     0.000000

  Related Dipole Moment =    11.1539 (X  1.4163 Y  5.9083 Z -9.3539)

 -----------------------------------------------------------------
                    Cartesian Multipole Moments
 -----------------------------------------------------------------
    Charge (ESU x 10^10)
                 0.0000
    Dipole Moment (Debye)
         X       1.3538      Y       5.8687      Z      -9.3003
       Tot      11.0802
    Quadrupole Moments (Debye-Ang)
        XX     -78.5830     XY      -7.7199     YY     -73.1395
        XZ       9.7816     YZ      -3.7026     ZZ     -43.3980
    Octopole Moments (Debye-Ang^2)
       XXX     222.0496    XXY     -35.7558    XYY      58.8907
       YYY    -170.8717    XXZ      80.8442    XYZ      14.6057
       YYZ     130.3039    XZZ      46.3835    YZZ      -4.8260
       ZZZ     100.4439
    Hexadecapole Moments (Debye-Ang^3)
      XXXX    -938.2252   XXXY     117.3619   XXYY    -212.5429
      XYYY     161.6824   YYYY    -573.0286   XXXZ     -51.0556
      XXYZ     109.0524   XYYZ     -36.0749   YYYZ     534.2070
      XXZZ    -717.3196   XYZZ     -22.1981   YYZZ    -743.8955
      XZZZ      53.2988   YZZZ     117.5486   ZZZZ   -2548.9402
 -----------------------------------------------------------------
 Total job time:  25.02s(wall), 145.60s(cpu) 
 Wed Jun 29 13:40:45 2022

        *************************************************************
        *                                                           *
        *  Thank you very much for using Q-Chem.  Have a nice day.  *
        *                                                           *
        *************************************************************


