                  Welcome to Q-Chem
     A Quantum Leap Into The Future Of Chemistry


 Q-Chem 5.4 (devel), Q-Chem, Inc., Pleasanton, CA (2021)

 E. Epifanovsky,  A. T. B. Gilbert,  Xintian Feng,  Joonho Lee,  Yuezhi Mao,  
 N. Mardirossian,  P. Pokhilko,  A. White,  M. Wormit,  M. P. Coons,  
 A. L. Dempwolff,  Zhengting Gan,  D. Hait,  P. R. Horn,  L. D. Jacobson,  
 I. Kaliman,  J. Kussmann,  A. W. Lange,  Ka Un Lao,  D. S. Levine,  Jie Liu,  
 S. C. McKenzie,  A. F. Morrison,  K. Nanda,  F. Plasser,  D. R. Rehn,  
 M. L. Vidal,  Zhi-Qiang You,  Ying Zhu,  B. Alam,  B. Albrecht,  
 A. Aldossary,  E. Alguire,  J. H. Andersen,  D. Barton,  K. Begam,  A. Behn,  
 Y. A. Bernard,  E. J. Berquist,  H. Burton,  A. Carreras,  K. Carter-Fenk,  
 R. Chakraborty,  A. D. Chien,  K. D. Closser,  V. Cofer-Shabica,  
 S. Dasgupta,  Jia Deng,  M. de Wergifosse,  M. Diedenhofen,  Hainam Do,  
 S. Ehlert,  Po-Tung Fang,  S. Fatehi,  Qingguo Feng,  T. Friedhoff,  
 J. Gayvert,  Qinghui Ge,  G. Gidofalvi,  M. Goldey,  J. Gomes,  
 C. Gonzalez-Espinoza,  S. Gulania,  A. Gunina,  M. W. D. Hanson-Heine,  
 P. H. P. Harbach,  A. W. Hauser,  M. F. Herbst,  M. Hernandez Vera,  
 M. Hodecker,  Z. C. Holden,  S. Houck,  Xunkun Huang,  Kerwin Hui,  
 B. C. Huynh,  M. Ivanov,  Hyunjun Ji,  Hanjie Jiang,  B. Kaduk,  S. Kaehler,  
 K. Khistyaev,  Jaehoon Kim,  P. Klunzinger,  Z. Koczor-Benda,  
 Joong Hoon Koh,  D. Kosenkov,  L. Koulias,  T. Kowalczyk,  C. M. Krauter,  
 K. Kue,  A. Kunitsa,  T. Kus,  A. Landau,  K. V. Lawler,  D. Lefrancois,  
 S. Lehtola,  Rain Li,  Yi-Pei Li,  Jiashu Liang,  M. Liebenthal,  
 Hung-Hsuan Lin,  You-Sheng Lin,  Fenglai Liu,  Kuan-Yu Liu,  
 M. Loipersberger,  A. Luenser,  A. Manjanath,  P. Manohar,  E. Mansoor,  
 S. F. Manzer,  Shan-Ping Mao,  A. V. Marenich,  T. Markovich,  S. Mason,  
 S. A. Maurer,  P. F. McLaughlin,  M. F. S. J. Menger,  J.-M. Mewes,  
 S. A. Mewes,  P. Morgante,  J. W. Mullinax,  K. J. Oosterbaan,  G. Paran,  
 Alexander C. Paul,  Suranjan K. Paul,  F. Pavosevic,  Zheng Pei,  S. Prager,  
 E. I. Proynov,  E. Ramos,  B. Rana,  A. E. Rask,  A. Rettig,  R. M. Richard,  
 F. Rob,  E. Rossomme,  T. Scheele,  M. Scheurer,  M. Schneider,  
 N. Sergueev,  S. M. Sharada,  W. Skomorowski,  D. W. Small,  C. J. Stein,  
 Yu-Chuan Su,  E. J. Sundstrom,  Zhen Tao,  J. Thirman,  T. Tsuchimochi,  
 N. M. Tubman,  S. P. Veccham,  O. Vydrov,  J. Wenzel,  J. Witte,  A. Yamada,  
 Kun Yao,  S. Yeganeh,  S. R. Yost,  A. Zech,  Igor Ying Zhang,  Xing Zhang,  
 Yu Zhang,  D. Zuev,  A. Aspuru-Guzik,  A. T. Bell,  N. A. Besley,  
 K. B. Bravaya,  B. R. Brooks,  D. Casanova,  Jeng-Da Chai,  S. Coriani,  
 C. J. Cramer,  A. E. DePrince, III,  R. A. DiStasio Jr.,  A. Dreuw,  
 B. D. Dunietz,  T. R. Furlani,  W. A. Goddard III,  S. Grimme,  
 S. Hammes-Schiffer,  T. Head-Gordon,  W. J. Hehre,  Chao-Ping Hsu,  
 T.-C. Jagau,  Yousung Jung,  A. Klamt,  Jing Kong,  D. S. Lambrecht,  
 WanZhen Liang,  N. J. Mayhall,  C. W. McCurdy,  J. B. Neaton,  
 C. Ochsenfeld,  J. A. Parkhill,  R. Peverati,  V. A. Rassolov,  Yihan Shao,  
 L. V. Slipchenko,  T. Stauch,  R. P. Steele,  J. E. Subotnik,  
 A. J. W. Thom,  A. Tkatchenko,  D. G. Truhlar,  T. Van Voorhis,  
 T. A. Wesolowski,  K. B. Whaley,  H. L. Woodcock III,  P. M. Zimmerman,  
 S. Faraji,  P. M. W. Gill,  M. Head-Gordon,  J. M. Herbert,  A. I. Krylov

 Additional authors for Version 5.4.1: 
 S. Kotaru,  Shaozhi Li,  Xiangyuan Li,  F. Matz,  A. Molle,  Haisheng Ren,  
 Yingli Su,  Hung-Yi Tsai,  C. Utku,  Fang Wang

 Contributors to earlier versions of Q-Chem not listed above: 
 R. D. Adamson,  B. Austin,  R. Baer,  J. Baker,  G. J. O. Beran,  
 K. Brandhorst,  S. T. Brown,  E. F. C. Byrd,  A. K. Chakraborty,  
 G. K. L. Chan,  Chun-Min Chang,  Yunqing Chen,  C.-L. Cheng,  
 Siu Hung Chien,  D. M. Chipman,  D. L. Crittenden,  H. Dachsel,  
 R. J. Doerksen,  A. D. Dutoi,  R. G. Edgar,  J. Fosso-Tande,  
 L. Fusti-Molnar,  D. Ghosh,  A. Ghysels,  A. Golubeva-Zadorozhnaya,  
 J. Gonthier,  M. S. Gordon,  S. R. Gwaltney,  G. Hawkins,  J. E. Herr,  
 A. Heyden,  S. Hirata,  E. G. Hohenstein,  G. Kedziora,  F. J. Keil,  
 C. Kelley,  Jihan Kim,  R. A. King,  R. Z. Khaliullin,  P. P. Korambath,  
 W. Kurlancheek,  A. Laurent,  A. M. Lee,  M. S. Lee,  S. V. Levchenko,  
 Ching Yeh Lin,  D. Liotard,  E. Livshits,  R. C. Lochan,  I. Lotan,  
 L. A. Martinez-Martinez,  P. E. Maslen,  N. Nair,  D. P. O'Neill,  
 D. Neuhauser,  E. Neuscamman,  C. M. Oana,  R. Olivares-Amaya,  R. Olson,  
 T. M. Perrine,  B. Peters,  P. A. Pieniazek,  A. Prociuk,  Y. M. Rhee,  
 J. Ritchie,  M. A. Rohrdanz,  E. Rosta,  N. J. Russ,  H. F. Schaefer III,  
 M. W. Schmidt,  N. E. Schultz,  S. Sharma,  N. Shenvi,  C. D. Sherrill,  
 A. C. Simmonett,  A. Sodt,  T. Stein,  D. Stuck,  K. S. Thanthiriwatte,  
 V. Vanovschi,  L. Vogt,  Tao Wang,  A. Warshel,  M. A. Watson,  
 C. F. Williams,  Q. Wu,  X. Xu,  Jun Yang,  W. Zhang,  Yan Zhao

 Please cite Q-Chem as follows:
 Y. Shao et al., Mol. Phys. 113, 184-215 (2015)
 DOI: 10.1080/00268976.2014.952696

 Q-Chem 5.4.1 for Intel X86 EM64T Linux

 Parts of Q-Chem use Armadillo 9.800.1 (Horizon Scraper).
 http://arma.sourceforge.net/

 Q-Chem begins on Fri May 27 13:02:20 2022  

 Host: gadi-cpu-clx-0752.gadi.nci.org.au
0

     Scratch files written to /jobfs/41470210.gadi-pbs/qchem2433204//
 Processing $rem in /apps/qchem/5.4.1/config/preferences:
 Processing $rem in /home/561/yj5695/.qchemrc:
 Symmetry turned off for PCM/SM12/SMD calculation
 Method-specific promolecule density matrix will be built for SM12 calculation

 Checking the input file for inconsistencies... 	...done.

--------------------------------------------------------------
User input:
--------------------------------------------------------------
$molecule
0  1
C -1.465901  1.160557 -0.596562
S -1.667552  0.686725  1.099911
O -0.363442  0.825204  1.733196
O -2.825167  1.425537  1.590942
N -2.056838 -0.902886  1.155405
H -1.313905 -1.502655  0.789683
H -2.95524 -1.105344  0.711775
S -2.767757  1.883345 -1.459499
C -1.806985  1.936096 -2.88311
C -0.549905  1.422619 -2.660725
C -0.332917  0.96431 -1.339497
C -2.341466  2.493765 -4.148443
S  0.65323  1.350943 -3.962838
O  0.5406  0.049057 -4.635219
O  1.959275  1.721844 -3.404732
H  0.590423  0.535277 -0.963893
C -1.435119  2.445405 -5.356297
C  0.046897  2.63811 -5.04157
O -3.478942  2.926813 -4.195696
H -1.754614  3.224597 -6.052199
H -1.601818  1.47609 -5.844713
H  0.247289  3.58372 -4.529376
H  0.659244  2.576681 -5.946695
$end

$rem
jobtype sp
exchange M062X
basis 6-31+G*
SMX_GAS_PHASE = TRUE
solvent_method sm12
$end

$smx
solvent water
charges mk
$end
--------------------------------------------------------------
 ----------------------------------------------------------------
             Standard Nuclear Orientation (Angstroms)
    I     Atom           X                Y                Z
 ----------------------------------------------------------------
    1      C      -1.4659010000     1.1605570000    -0.5965620000
    2      S      -1.6675520000     0.6867250000     1.0999110000
    3      O      -0.3634420000     0.8252040000     1.7331960000
    4      O      -2.8251670000     1.4255370000     1.5909420000
    5      N      -2.0568380000    -0.9028860000     1.1554050000
    6      H      -1.3139050000    -1.5026550000     0.7896830000
    7      H      -2.9552400000    -1.1053440000     0.7117750000
    8      S      -2.7677570000     1.8833450000    -1.4594990000
    9      C      -1.8069850000     1.9360960000    -2.8831100000
   10      C      -0.5499050000     1.4226190000    -2.6607250000
   11      C      -0.3329170000     0.9643100000    -1.3394970000
   12      C      -2.3414660000     2.4937650000    -4.1484430000
   13      S       0.6532300000     1.3509430000    -3.9628380000
   14      O       0.5406000000     0.0490570000    -4.6352190000
   15      O       1.9592750000     1.7218440000    -3.4047320000
   16      H       0.5904230000     0.5352770000    -0.9638930000
   17      C      -1.4351190000     2.4454050000    -5.3562970000
   18      C       0.0468970000     2.6381100000    -5.0415700000
   19      O      -3.4789420000     2.9268130000    -4.1956960000
   20      H      -1.7546140000     3.2245970000    -6.0521990000
   21      H      -1.6018180000     1.4760900000    -5.8447130000
   22      H       0.2472890000     3.5837200000    -4.5293760000
   23      H       0.6592440000     2.5766810000    -5.9466950000
 ----------------------------------------------------------------
 Nuclear Repulsion Energy =        1593.66083911 hartrees
 There are       72 alpha and       72 beta electrons
 Requested basis set is 6-31+G(d)
 There are 97 shells and 330 basis functions

 Total QAlloc Memory Limit   2000 MB
 Mega-Array Size       188 MB
 MEM_STATIC part       192 MB
 A cutoff of  1.0D-08 yielded   3420 shell pairs
 There are     42507 function pairs
 Smallest overlap matrix eigenvalue = 9.54E-07

 Q-Chem warning in module stvman/mkSTV.C, line 323:

 Overlap eigenvalue is smaller than square root of threshold
 Use THRESH >= 12 to get rid of this warning

 Linear dependence detected in AO basis
 Tighter screening thresholds may be required for diffuse basis sets
 Use S2THRESH > 14 and THRESH = 14 in case of SCF convergence issues
 Number of orthogonalized atomic orbitals = 329
 Maximum deviation from orthogonality = 8.632E-11

 Scale SEOQF with 1.000000e-01/1.000000e-01/1.000000e-02

 Standard Electronic Orientation quadrupole field applied
 Nucleus-field energy     =     0.0000000319 hartrees
 ================ Generating on-the-fly Promolecule Density  ================
Attempting to make child job directory: /jobfs/41470210.gadi-pbs/qchem2433204//Frg1/
Attempting to make child job directory: /jobfs/41470210.gadi-pbs/qchem2433204//Frg2/
Attempting to make child job directory: /jobfs/41470210.gadi-pbs/qchem2433204//Frg3/
Attempting to make child job directory: /jobfs/41470210.gadi-pbs/qchem2433204//Frg4/
Attempting to make child job directory: /jobfs/41470210.gadi-pbs/qchem2433204//Frg5/
Creating input file /jobfs/41470210.gadi-pbs/qchem2433204/Frg1.input
using default PutDataFrgm: nothing
calling putenv with: QCSCRATCH=/jobfs/41470210.gadi-pbs/qchem2433204/ 
Spawning Job For Fragment 0
Done Job For Fragment 0
calling putenv with: QCSCRATCH=/jobfs/41470210.gadi-pbs 
calling putenv with: QCTHREADS=16 
Creating input file /jobfs/41470210.gadi-pbs/qchem2433204/Frg2.input
using default PutDataFrgm: nothing
calling putenv with: QCSCRATCH=/jobfs/41470210.gadi-pbs/qchem2433204/ 
Spawning Job For Fragment 1
Done Job For Fragment 1
calling putenv with: QCSCRATCH=/jobfs/41470210.gadi-pbs 
calling putenv with: QCTHREADS=16 
Creating input file /jobfs/41470210.gadi-pbs/qchem2433204/Frg3.input
using default PutDataFrgm: nothing
calling putenv with: QCSCRATCH=/jobfs/41470210.gadi-pbs/qchem2433204/ 
Spawning Job For Fragment 2
Done Job For Fragment 2
calling putenv with: QCSCRATCH=/jobfs/41470210.gadi-pbs 
calling putenv with: QCTHREADS=16 
Creating input file /jobfs/41470210.gadi-pbs/qchem2433204/Frg4.input
using default PutDataFrgm: nothing
calling putenv with: QCSCRATCH=/jobfs/41470210.gadi-pbs/qchem2433204/ 
Spawning Job For Fragment 3
Done Job For Fragment 3
calling putenv with: QCSCRATCH=/jobfs/41470210.gadi-pbs 
calling putenv with: QCTHREADS=16 
Creating input file /jobfs/41470210.gadi-pbs/qchem2433204/Frg5.input
using default PutDataFrgm: nothing
calling putenv with: QCSCRATCH=/jobfs/41470210.gadi-pbs/qchem2433204/ 
Spawning Job For Fragment 4
Done Job For Fragment 4
calling putenv with: QCSCRATCH=/jobfs/41470210.gadi-pbs 
calling putenv with: QCTHREADS=16 
 Time for running child jobs:  CPU 1.97 s  wall 1.84 s
 ============= Method Specific Promolecule Density Constructed =============
 Guess from superposition of atomic densities
 Warning:  Energy on first SCF cycle will be non-variational
 SAD guess density has 144.000000 electrons

 -----------------------------------------------------------------------
  General SCF calculation program by
  Eric Jon Sundstrom, Paul Horn, Yuezhi Mao, Dmitri Zuev, Alec White,
  David Stuck, Shaama M.S., Shane Yost, Joonho Lee, David Small,
  Daniel Levine, Susi Lehtola, Hugh Burton, Evgeny Epifanovsky,
  Bang C. Huynh
 -----------------------------------------------------------------------
 Exchange:     0.5400 Hartree-Fock + 1.0000 M06-2X
 Correlation:  1.0000 M06-2X
 Using SG-3 standard quadrature grid
 using 16 threads for integral computing
 -------------------------------------------------------
 OpenMP Integral computing Module                
 Release: version 1.0, May 2013, Q-Chem Inc. Pittsburgh 
 -------------------------------------------------------
 A restricted SCF calculation will be
 performed using DIIS
 SCF converges when DIIS error is below 1.0e-05
 ---------------------------------------
  Cycle       Energy         DIIS error
 ---------------------------------------
    1   -1901.1995914295      4.33e-02  
    2   -1895.3840419415      6.50e-03  
    3   -1894.8024159507      1.03e-02  
    4   -1895.8555836757      9.72e-04  
    5   -1895.8650336024      5.06e-04  
    6   -1895.8679407498      1.50e-04  
    7   -1895.8682118297      4.40e-05  
    8   -1895.8682360774      1.61e-05  
    9   -1895.8682408975      7.05e-06  Convergence criterion met
 ---------------------------------------
 SCF time:   CPU 198.64s  wall 13.00s 
 SCF   energy in the final basis set =    -1895.8682408975
 Total energy in the final basis set =    -1895.8682408975
 Exchange:     0.5400 Hartree-Fock + 1.0000 M06-2X
 Correlation:  1.0000 M06-2X
 Using SG-3 standard quadrature grid
 
 SM12 calculation using Merz-Singh-Kollman charges
 Citation of the SM12 model:
 Marenich, A.V.; Cramer, C.J.; Truhlar, D.G.
 J. Chem. Theory Comput. 2013, 9, 609-612.
 iSolventCode=           1
 Solvent: water                                                           
 
  Building new vdw surfaces
         Merz-Kollman ESP Net Atomic Charges

     Atom                 Charge (a.u.)
  ----------------------------------------
      1 C                    -0.262092
      2 S                     1.086429
      3 O                    -0.480123
      4 O                    -0.469724
      5 N                    -0.823157
      6 H                     0.395092
      7 H                     0.394172
      8 S                     0.167782
      9 C                    -0.021758
     10 C                    -0.162225
     11 C                    -0.092482
     12 C                     0.501510
     13 S                     0.906220
     14 O                    -0.507197
     15 O                    -0.506557
     16 H                     0.221840
     17 C                    -0.212713
     18 C                    -0.266448
     19 O                    -0.448606
     20 H                     0.130620
     21 H                     0.120528
     22 H                     0.149978
     23 H                     0.178910
  ----------------------------------------
  Sum of atomic charges =     0.000000

  Related Dipole Moment =     4.7257 (X -1.6986 Y -0.9515 Z -4.3060)


 Charges (in A.U.) from Merz-Kollman fitting 
 -----------------------------------------------
 Center     Atomic                  MZ       
 Number     Number                  Charge
 -----------------------------------------------
    1          6                   -0.262092
    2         16                    1.086429
    3          8                   -0.480123
    4          8                   -0.469724
    5          7                   -0.823157
    6          1                    0.395092
    7          1                    0.394172
    8         16                    0.167782
    9          6                   -0.021758
   10          6                   -0.162225
   11          6                   -0.092482
   12          6                    0.501510
   13         16                    0.906220
   14          8                   -0.507197
   15          8                   -0.506557
   16          1                    0.221840
   17          6                   -0.212713
   18          6                   -0.266448
   19          8                   -0.448606
   20          1                    0.130620
   21          1                    0.120528
   22          1                    0.149978
   23          1                    0.178910
 -----------------------------------------------
 A restricted SCF calculation will be
 performed using Roothaan-Hall, DIIS
 SCF converges when DIIS error is below 1.0e-05
 ---------------------------------------
  Cycle       Energy         DIIS error
 ---------------------------------------
         Merz-Kollman ESP Net Atomic Charges

     Atom                 Charge (a.u.)
  ----------------------------------------
      1 C                    -0.262935
      2 S                     1.133355
      3 O                    -0.538009
      4 O                    -0.523747
      5 N                    -0.812278
      6 H                     0.413974
      7 H                     0.412080
      8 S                     0.153694
      9 C                     0.022739
     10 C                    -0.172830
     11 C                    -0.078956
     12 C                     0.523712
     13 S                     0.961631
     14 O                    -0.563059
     15 O                    -0.568877
     16 H                     0.230878
     17 C                    -0.179067
     18 C                    -0.263679
     19 O                    -0.512493
     20 H                     0.143214
     21 H                     0.119983
     22 H                     0.166055
     23 H                     0.194614
  ----------------------------------------
  Sum of atomic charges =     0.000000

  Related Dipole Moment =     5.7267 (X -1.8864 Y -1.0882 Z -5.2964)


 Charges (in A.U.) from Merz-Kollman fitting 
 -----------------------------------------------
 Center     Atomic                  MZ       
 Number     Number                  Charge
 -----------------------------------------------
    1          6                   -0.262935
    2         16                    1.133355
    3          8                   -0.538009
    4          8                   -0.523747
    5          7                   -0.812278
    6          1                    0.413974
    7          1                    0.412080
    8         16                    0.153694
    9          6                    0.022739
   10          6                   -0.172830
   11          6                   -0.078956
   12          6                    0.523712
   13         16                    0.961631
   14          8                   -0.563059
   15          8                   -0.568877
   16          1                    0.230878
   17          6                   -0.179067
   18          6                   -0.263679
   19          8                   -0.512493
   20          1                    0.143214
   21          1                    0.119983
   22          1                    0.166055
   23          1                    0.194614
 -----------------------------------------------
    1   -1895.8682401808      4.74e-04  Roothaan Step
 ---------------------------------------
  Cycle       Energy         DIIS error
 ---------------------------------------
         Merz-Kollman ESP Net Atomic Charges

     Atom                 Charge (a.u.)
  ----------------------------------------
      1 C                    -0.273904
      2 S                     1.087618
      3 O                    -0.508187
      4 O                    -0.494461
      5 N                    -0.818833
      6 H                     0.414418
      7 H                     0.411944
      8 S                     0.183121
      9 C                    -0.003152
     10 C                    -0.205247
     11 C                    -0.073951
     12 C                     0.472244
     13 S                     0.920056
     14 O                    -0.531064
     15 O                    -0.530719
     16 H                     0.234342
     17 C                    -0.203294
     18 C                    -0.326852
     19 O                    -0.451150
     20 H                     0.158970
     21 H                     0.133561
     22 H                     0.186549
     23 H                     0.217992
  ----------------------------------------
  Sum of atomic charges =     0.000000

  Related Dipole Moment =     5.5717 (X -2.0281 Y -0.9230 Z -5.1068)


 Charges (in A.U.) from Merz-Kollman fitting 
 -----------------------------------------------
 Center     Atomic                  MZ       
 Number     Number                  Charge
 -----------------------------------------------
    1          6                   -0.273904
    2         16                    1.087618
    3          8                   -0.508187
    4          8                   -0.494461
    5          7                   -0.818833
    6          1                    0.414418
    7          1                    0.411944
    8         16                    0.183121
    9          6                   -0.003152
   10          6                   -0.205247
   11          6                   -0.073951
   12          6                    0.472244
   13         16                    0.920056
   14          8                   -0.531064
   15          8                   -0.530719
   16          1                    0.234342
   17          6                   -0.203294
   18          6                   -0.326852
   19          8                   -0.451150
   20          1                    0.158970
   21          1                    0.133561
   22          1                    0.186549
   23          1                    0.217992
 -----------------------------------------------
    1   -1895.8580547134      4.24e-04  
         Merz-Kollman ESP Net Atomic Charges

     Atom                 Charge (a.u.)
  ----------------------------------------
      1 C                    -0.267912
      2 S                     1.125169
      3 O                    -0.530976
      4 O                    -0.516595
      5 N                    -0.815343
      6 H                     0.414578
      7 H                     0.412129
      8 S                     0.162703
      9 C                     0.015276
     10 C                    -0.180368
     11 C                    -0.081214
     12 C                     0.508365
     13 S                     0.957712
     14 O                    -0.556952
     15 O                    -0.560524
     16 H                     0.233727
     17 C                    -0.195174
     18 C                    -0.298771
     19 O                    -0.495400
     20 H                     0.153433
     21 H                     0.129369
     22 H                     0.178736
     23 H                     0.208031
  ----------------------------------------
  Sum of atomic charges =     0.000000

  Related Dipole Moment =     5.7121 (X -1.9213 Y -1.0231 Z -5.2811)


 Charges (in A.U.) from Merz-Kollman fitting 
 -----------------------------------------------
 Center     Atomic                  MZ       
 Number     Number                  Charge
 -----------------------------------------------
    1          6                   -0.267912
    2         16                    1.125169
    3          8                   -0.530976
    4          8                   -0.516595
    5          7                   -0.815343
    6          1                    0.414578
    7          1                    0.412129
    8         16                    0.162703
    9          6                    0.015276
   10          6                   -0.180368
   11          6                   -0.081214
   12          6                    0.508365
   13         16                    0.957712
   14          8                   -0.556952
   15          8                   -0.560524
   16          1                    0.233727
   17          6                   -0.195174
   18          6                   -0.298771
   19          8                   -0.495400
   20          1                    0.153433
   21          1                    0.129369
   22          1                    0.178736
   23          1                    0.208031
 -----------------------------------------------
    2   -1895.8606899594      6.00e-04  
         Merz-Kollman ESP Net Atomic Charges

     Atom                 Charge (a.u.)
  ----------------------------------------
      1 C                    -0.268861
      2 S                     1.123292
      3 O                    -0.531769
      4 O                    -0.517111
      5 N                    -0.814112
      6 H                     0.415053
      7 H                     0.412625
      8 S                     0.165898
      9 C                     0.015939
     10 C                    -0.188075
     11 C                    -0.076743
     12 C                     0.502623
     13 S                     0.953399
     14 O                    -0.555860
     15 O                    -0.559314
     16 H                     0.233654
     17 C                    -0.192692
     18 C                    -0.298905
     19 O                    -0.491016
     20 H                     0.154246
     21 H                     0.128944
     22 H                     0.179549
     23 H                     0.209236
  ----------------------------------------
  Sum of atomic charges =     0.000000

  Related Dipole Moment =     5.7539 (X -1.9725 Y -1.0087 Z -5.3103)


 Charges (in A.U.) from Merz-Kollman fitting 
 -----------------------------------------------
 Center     Atomic                  MZ       
 Number     Number                  Charge
 -----------------------------------------------
    1          6                   -0.268861
    2         16                    1.123292
    3          8                   -0.531769
    4          8                   -0.517111
    5          7                   -0.814112
    6          1                    0.415053
    7          1                    0.412625
    8         16                    0.165898
    9          6                    0.015939
   10          6                   -0.188075
   11          6                   -0.076743
   12          6                    0.502623
   13         16                    0.953399
   14          8                   -0.555860
   15          8                   -0.559314
   16          1                    0.233654
   17          6                   -0.192692
   18          6                   -0.298905
   19          8                   -0.491016
   20          1                    0.154246
   21          1                    0.128944
   22          1                    0.179549
   23          1                    0.209236
 -----------------------------------------------
    3   -1895.8604888608      4.31e-05  
         Merz-Kollman ESP Net Atomic Charges

     Atom                 Charge (a.u.)
  ----------------------------------------
      1 C                    -0.269682
      2 S                     1.121847
      3 O                    -0.530945
      4 O                    -0.516351
      5 N                    -0.814594
      6 H                     0.415262
      7 H                     0.412755
      8 S                     0.165164
      9 C                     0.016425
     10 C                    -0.186279
     11 C                    -0.077152
     12 C                     0.504634
     13 S                     0.954655
     14 O                    -0.556361
     15 O                    -0.559904
     16 H                     0.233790
     17 C                    -0.193283
     18 C                    -0.301547
     19 O                    -0.493190
     20 H                     0.154799
     21 H                     0.129433
     22 H                     0.180456
     23 H                     0.210068
  ----------------------------------------
  Sum of atomic charges =     0.000000

  Related Dipole Moment =     5.7566 (X -1.9539 Y -1.0069 Z -5.3204)


 Charges (in A.U.) from Merz-Kollman fitting 
 -----------------------------------------------
 Center     Atomic                  MZ       
 Number     Number                  Charge
 -----------------------------------------------
    1          6                   -0.269682
    2         16                    1.121847
    3          8                   -0.530945
    4          8                   -0.516351
    5          7                   -0.814594
    6          1                    0.415262
    7          1                    0.412755
    8         16                    0.165164
    9          6                    0.016425
   10          6                   -0.186279
   11          6                   -0.077152
   12          6                    0.504634
   13         16                    0.954655
   14          8                   -0.556361
   15          8                   -0.559904
   16          1                    0.233790
   17          6                   -0.193283
   18          6                   -0.301547
   19          8                   -0.493190
   20          1                    0.154799
   21          1                    0.129433
   22          1                    0.180456
   23          1                    0.210068
 -----------------------------------------------
    4   -1895.8602780016      2.48e-05  
    5   -1895.8601890004      7.31e-06  Convergence criterion met
 ---------------------------------------
 SCF time:   CPU 169.17s  wall 11.00s 
(0)  E-EN(g) gas-phase elect-nuc energy                -1895.868240898 a.u.
(1)  E-EN(liq) elect-nuc energy of solute              -1895.860189000 a.u.
(2)  G-P(liq) polarization free energy of solvation           -31.1786 kcal/mol
(3)  G-ENP(liq) elect-nuc-pol free energy of system    -1895.909875271 a.u.
(4)  G-CDS(liq) cavity-dispersion-solvent structure 
     free energy                                                3.4801 kcal/mol
(5)  G-P-CDS(liq) = G-P(liq) + G-CDS(liq) = (2) + (4)         -27.6985 kcal/mol
(6)  G-S(liq) free energy of system = (1) + (5)        -1895.904329391 a.u.
(7)  DeltaE-EN(liq) elect-nuc reorganization
     energy of solute molecule (7) = (1) - (0)                  5.0526 kcal/mol
(8)  DeltaG-ENP(liq) elect-nuc-pol free energy
     of solvation (8) = (3) - (0)                             -26.1260 kcal/mol
(9)  DeltaG-S(liq) free energy of  solvation
     (9) = (6) - (0)                                          -22.6459 kcal/mol
 SCF   energy in the final basis set =    -1895.9043293906
 Total energy in the final basis set =    -1895.9043293906
 
 --------------------------------------------------------------
 
                    Orbital Energies (a.u.)
 --------------------------------------------------------------
 
 Alpha MOs
 -- Occupied --
-90.1933 -90.1644 -90.0066 -19.6750 -19.6703 -19.6696 -19.6645 -19.6636
-14.8149 -10.6864 -10.6461 -10.6383 -10.6306 -10.6145 -10.6085 -10.5874
 -8.5060  -8.4826  -8.3535  -6.4281  -6.4278  -6.4274  -6.4042  -6.4041
 -6.4033  -6.2736  -6.2713  -6.2693  -1.2740  -1.2534  -1.2061  -1.1598
 -1.1450  -1.0518  -1.0430  -0.9595  -0.8959  -0.8935  -0.8357  -0.7965
 -0.7431  -0.7183  -0.6854  -0.6494  -0.6293  -0.6211  -0.6088  -0.5948
 -0.5848  -0.5760  -0.5594  -0.5553  -0.5435  -0.5365  -0.5209  -0.4985
 -0.4926  -0.4878  -0.4656  -0.4515  -0.4479  -0.4345  -0.4319  -0.4269
 -0.4146  -0.4129  -0.4046  -0.3993  -0.3791  -0.3646  -0.3526  -0.3405
 -- Virtual --
 -0.0803  -0.0053  -0.0011   0.0133   0.0270   0.0300   0.0333   0.0420
  0.0456   0.0494   0.0524   0.0603   0.0632   0.0676   0.0724   0.0758
  0.0788   0.0836   0.0871   0.0931   0.0985   0.1026   0.1077   0.1132
  0.1176   0.1196   0.1233   0.1246   0.1285   0.1379   0.1442   0.1476
  0.1537   0.1550   0.1621   0.1637   0.1679   0.1713   0.1754   0.1859
  0.1886   0.1916   0.1973   0.2017   0.2056   0.2117   0.2155   0.2241
  0.2302   0.2317   0.2355   0.2409   0.2457   0.2529   0.2557   0.2650
  0.2676   0.2730   0.2776   0.2816   0.2863   0.2931   0.2980   0.3053
  0.3103   0.3146   0.3174   0.3194   0.3226   0.3262   0.3283   0.3353
  0.3384   0.3454   0.3544   0.3601   0.3625   0.3739   0.3806   0.3826
  0.3944   0.3992   0.4101   0.4190   0.4315   0.4477   0.4611   0.4654
  0.4814   0.5216   0.5349   0.5464   0.5620   0.5756   0.5824   0.6157
  0.6269   0.6294   0.6402   0.6569   0.6634   0.6699   0.6830   0.6935
  0.7072   0.7144   0.7272   0.7319   0.7375   0.7406   0.7563   0.7660
  0.7772   0.8033   0.8217   0.8532   0.8648   0.8820   0.9093   0.9229
  0.9338   0.9376   0.9598   0.9737   0.9910   0.9991   1.0017   1.0190
  1.0293   1.0427   1.0457   1.0637   1.0697   1.0954   1.0992   1.1104
  1.1220   1.1365   1.1440   1.1540   1.1626   1.1780   1.1864   1.1884
  1.1909   1.2093   1.2344   1.2453   1.2739   1.2922   1.3091   1.3151
  1.3252   1.3362   1.3421   1.3511   1.3571   1.3613   1.3699   1.3725
  1.3796   1.3854   1.4014   1.4223   1.4274   1.4327   1.4431   1.4550
  1.4674   1.4872   1.5021   1.5318   1.5487   1.5622   1.5930   1.6264
  1.6747   1.6856   1.7247   1.7377   1.7533   1.7640   1.7736   1.7760
  1.8067   1.8160   1.8373   1.8395   1.8448   1.8520   1.8535   1.8792
  1.8996   1.9079   1.9098   1.9393   1.9459   1.9566   1.9713   1.9901
  2.0013   2.0207   2.0359   2.0468   2.0748   2.0837   2.1135   2.1215
  2.1379   2.1417   2.1519   2.1631   2.2171   2.2497   2.2708   2.2745
  2.2895   2.3100   2.3269   2.3380   2.3727   2.3810   2.4067   2.4499
  2.4591   2.4830   2.4967   2.5848   2.6041   2.6304   2.6708   2.7611
  2.7917   2.8659   2.8792   2.9147   2.9343   2.9837   3.0241   3.0994
  3.2097   3.8690   3.9715   4.0036   4.0619   4.1684   4.2169   4.2263
  4.2514   4.2756   4.2912   4.3222   4.3584   4.4258   4.4849   4.5334
  4.7377
 --------------------------------------------------------------
 
          Ground-State Mulliken Net Atomic Charges

     Atom                 Charge (a.u.)
  ----------------------------------------
      1 C                    -1.344550
      2 S                     1.520662
      3 O                    -0.682725
      4 O                    -0.708377
      5 N                    -0.764525
      6 H                     0.513543
      7 H                     0.514682
      8 S                     0.305225
      9 C                     0.222132
     10 C                    -1.139644
     11 C                     0.697242
     12 C                     0.145029
     13 S                     1.001149
     14 O                    -0.616502
     15 O                    -0.671173
     16 H                     0.332051
     17 C                     0.161057
     18 C                    -0.233045
     19 O                    -0.592065
     20 H                     0.320995
     21 H                     0.323740
     22 H                     0.349957
     23 H                     0.345143
  ----------------------------------------
  Sum of atomic charges =     0.000000

         Merz-Kollman ESP Net Atomic Charges

     Atom                 Charge (a.u.)
  ----------------------------------------
      1 C                    -0.269073
      2 S                     1.123473
      3 O                    -0.531606
      4 O                    -0.516957
      5 N                    -0.814718
      6 H                     0.415207
      7 H                     0.412705
      8 S                     0.165070
      9 C                     0.016072
     10 C                    -0.186176
     11 C                    -0.077762
     12 C                     0.504334
     13 S                     0.955519
     14 O                    -0.556642
     15 O                    -0.560142
     16 H                     0.233895
     17 C                    -0.193822
     18 C                    -0.301977
     19 O                    -0.492850
     20 H                     0.154980
     21 H                     0.129666
     22 H                     0.180592
     23 H                     0.210213
  ----------------------------------------
  Sum of atomic charges =     0.000000

  Related Dipole Moment =     5.7560 (X -1.9559 Y -1.0081 Z -5.3188)

 -----------------------------------------------------------------
                    Cartesian Multipole Moments
 -----------------------------------------------------------------
    Charge (ESU x 10^10)
                 0.0000
    Dipole Moment (Debye)
         X      -1.9479      Y      -1.0433      Z      -5.3005
       Tot       5.7426
    Quadrupole Moments (Debye-Ang)
        XX    -131.4206     XY      11.1907     YY    -105.9366
        XZ       9.9780     YZ     -25.4863     ZZ    -104.8459
    Octopole Moments (Debye-Ang^2)
       XXX     423.3091    XXY    -235.6010    XYY     148.2714
       YYY    -461.1327    XXZ     281.9552    XYZ      -9.0940
       YYZ     174.0794    XZZ     128.2412    YZZ     -37.9243
       ZZZ     507.5234
    Hexadecapole Moments (Debye-Ang^3)
      XXXX   -2649.6754   XXXY     838.7622   XXYY    -906.8941
      XYYY     702.7758   YYYY   -1970.5673   XXXZ    -495.0273
      XXYZ     651.4562   XYYZ    -197.7120   YYYZ    1255.6575
      XXZZ   -1847.2617   XYZZ     311.1451   YYZZ   -1174.3515
      XZZZ    -257.1531   YZZZ     611.5201   ZZZZ   -5640.9855
 -----------------------------------------------------------------
 Total job time:  26.37s(wall), 375.64s(cpu) 
 Fri May 27 13:02:46 2022

        *************************************************************
        *                                                           *
        *  Thank you very much for using Q-Chem.  Have a nice day.  *
        *                                                           *
        *************************************************************


