                  Welcome to Q-Chem
     A Quantum Leap Into The Future Of Chemistry


 Q-Chem 5.4 (devel), Q-Chem, Inc., Pleasanton, CA (2021)

 E. Epifanovsky,  A. T. B. Gilbert,  Xintian Feng,  Joonho Lee,  Yuezhi Mao,  
 N. Mardirossian,  P. Pokhilko,  A. White,  M. Wormit,  M. P. Coons,  
 A. L. Dempwolff,  Zhengting Gan,  D. Hait,  P. R. Horn,  L. D. Jacobson,  
 I. Kaliman,  J. Kussmann,  A. W. Lange,  Ka Un Lao,  D. S. Levine,  Jie Liu,  
 S. C. McKenzie,  A. F. Morrison,  K. Nanda,  F. Plasser,  D. R. Rehn,  
 M. L. Vidal,  Zhi-Qiang You,  Ying Zhu,  B. Alam,  B. Albrecht,  
 A. Aldossary,  E. Alguire,  J. H. Andersen,  D. Barton,  K. Begam,  A. Behn,  
 Y. A. Bernard,  E. J. Berquist,  H. Burton,  A. Carreras,  K. Carter-Fenk,  
 R. Chakraborty,  A. D. Chien,  K. D. Closser,  V. Cofer-Shabica,  
 S. Dasgupta,  Jia Deng,  M. de Wergifosse,  M. Diedenhofen,  Hainam Do,  
 S. Ehlert,  Po-Tung Fang,  S. Fatehi,  Qingguo Feng,  T. Friedhoff,  
 J. Gayvert,  Qinghui Ge,  G. Gidofalvi,  M. Goldey,  J. Gomes,  
 C. Gonzalez-Espinoza,  S. Gulania,  A. Gunina,  M. W. D. Hanson-Heine,  
 P. H. P. Harbach,  A. W. Hauser,  M. F. Herbst,  M. Hernandez Vera,  
 M. Hodecker,  Z. C. Holden,  S. Houck,  Xunkun Huang,  Kerwin Hui,  
 B. C. Huynh,  M. Ivanov,  Hyunjun Ji,  Hanjie Jiang,  B. Kaduk,  S. Kaehler,  
 K. Khistyaev,  Jaehoon Kim,  P. Klunzinger,  Z. Koczor-Benda,  
 Joong Hoon Koh,  D. Kosenkov,  L. Koulias,  T. Kowalczyk,  C. M. Krauter,  
 K. Kue,  A. Kunitsa,  T. Kus,  A. Landau,  K. V. Lawler,  D. Lefrancois,  
 S. Lehtola,  Rain Li,  Yi-Pei Li,  Jiashu Liang,  M. Liebenthal,  
 Hung-Hsuan Lin,  You-Sheng Lin,  Fenglai Liu,  Kuan-Yu Liu,  
 M. Loipersberger,  A. Luenser,  A. Manjanath,  P. Manohar,  E. Mansoor,  
 S. F. Manzer,  Shan-Ping Mao,  A. V. Marenich,  T. Markovich,  S. Mason,  
 S. A. Maurer,  P. F. McLaughlin,  M. F. S. J. Menger,  J.-M. Mewes,  
 S. A. Mewes,  P. Morgante,  J. W. Mullinax,  K. J. Oosterbaan,  G. Paran,  
 Alexander C. Paul,  Suranjan K. Paul,  F. Pavosevic,  Zheng Pei,  S. Prager,  
 E. I. Proynov,  E. Ramos,  B. Rana,  A. E. Rask,  A. Rettig,  R. M. Richard,  
 F. Rob,  E. Rossomme,  T. Scheele,  M. Scheurer,  M. Schneider,  
 N. Sergueev,  S. M. Sharada,  W. Skomorowski,  D. W. Small,  C. J. Stein,  
 Yu-Chuan Su,  E. J. Sundstrom,  Zhen Tao,  J. Thirman,  T. Tsuchimochi,  
 N. M. Tubman,  S. P. Veccham,  O. Vydrov,  J. Wenzel,  J. Witte,  A. Yamada,  
 Kun Yao,  S. Yeganeh,  S. R. Yost,  A. Zech,  Igor Ying Zhang,  Xing Zhang,  
 Yu Zhang,  D. Zuev,  A. Aspuru-Guzik,  A. T. Bell,  N. A. Besley,  
 K. B. Bravaya,  B. R. Brooks,  D. Casanova,  Jeng-Da Chai,  S. Coriani,  
 C. J. Cramer,  A. E. DePrince, III,  R. A. DiStasio Jr.,  A. Dreuw,  
 B. D. Dunietz,  T. R. Furlani,  W. A. Goddard III,  S. Grimme,  
 S. Hammes-Schiffer,  T. Head-Gordon,  W. J. Hehre,  Chao-Ping Hsu,  
 T.-C. Jagau,  Yousung Jung,  A. Klamt,  Jing Kong,  D. S. Lambrecht,  
 WanZhen Liang,  N. J. Mayhall,  C. W. McCurdy,  J. B. Neaton,  
 C. Ochsenfeld,  J. A. Parkhill,  R. Peverati,  V. A. Rassolov,  Yihan Shao,  
 L. V. Slipchenko,  T. Stauch,  R. P. Steele,  J. E. Subotnik,  
 A. J. W. Thom,  A. Tkatchenko,  D. G. Truhlar,  T. Van Voorhis,  
 T. A. Wesolowski,  K. B. Whaley,  H. L. Woodcock III,  P. M. Zimmerman,  
 S. Faraji,  P. M. W. Gill,  M. Head-Gordon,  J. M. Herbert,  A. I. Krylov

 Additional authors for Version 5.4.1: 
 S. Kotaru,  Shaozhi Li,  Xiangyuan Li,  F. Matz,  A. Molle,  Haisheng Ren,  
 Yingli Su,  Hung-Yi Tsai,  C. Utku,  Fang Wang

 Contributors to earlier versions of Q-Chem not listed above: 
 R. D. Adamson,  B. Austin,  R. Baer,  J. Baker,  G. J. O. Beran,  
 K. Brandhorst,  S. T. Brown,  E. F. C. Byrd,  A. K. Chakraborty,  
 G. K. L. Chan,  Chun-Min Chang,  Yunqing Chen,  C.-L. Cheng,  
 Siu Hung Chien,  D. M. Chipman,  D. L. Crittenden,  H. Dachsel,  
 R. J. Doerksen,  A. D. Dutoi,  R. G. Edgar,  J. Fosso-Tande,  
 L. Fusti-Molnar,  D. Ghosh,  A. Ghysels,  A. Golubeva-Zadorozhnaya,  
 J. Gonthier,  M. S. Gordon,  S. R. Gwaltney,  G. Hawkins,  J. E. Herr,  
 A. Heyden,  S. Hirata,  E. G. Hohenstein,  G. Kedziora,  F. J. Keil,  
 C. Kelley,  Jihan Kim,  R. A. King,  R. Z. Khaliullin,  P. P. Korambath,  
 W. Kurlancheek,  A. Laurent,  A. M. Lee,  M. S. Lee,  S. V. Levchenko,  
 Ching Yeh Lin,  D. Liotard,  E. Livshits,  R. C. Lochan,  I. Lotan,  
 L. A. Martinez-Martinez,  P. E. Maslen,  N. Nair,  D. P. O'Neill,  
 D. Neuhauser,  E. Neuscamman,  C. M. Oana,  R. Olivares-Amaya,  R. Olson,  
 T. M. Perrine,  B. Peters,  P. A. Pieniazek,  A. Prociuk,  Y. M. Rhee,  
 J. Ritchie,  M. A. Rohrdanz,  E. Rosta,  N. J. Russ,  H. F. Schaefer III,  
 M. W. Schmidt,  N. E. Schultz,  S. Sharma,  N. Shenvi,  C. D. Sherrill,  
 A. C. Simmonett,  A. Sodt,  T. Stein,  D. Stuck,  K. S. Thanthiriwatte,  
 V. Vanovschi,  L. Vogt,  Tao Wang,  A. Warshel,  M. A. Watson,  
 C. F. Williams,  Q. Wu,  X. Xu,  Jun Yang,  W. Zhang,  Yan Zhao

 Please cite Q-Chem as follows:
 Y. Shao et al., Mol. Phys. 113, 184-215 (2015)
 DOI: 10.1080/00268976.2014.952696

 Q-Chem 5.4.1 for Intel X86 EM64T Linux

 Parts of Q-Chem use Armadillo 9.800.1 (Horizon Scraper).
 http://arma.sourceforge.net/

 Q-Chem begins on Sat May 21 13:29:32 2022  

 Host: gadi-cpu-clx-2736.gadi.nci.org.au
0

     Scratch files written to /jobfs/40841456.gadi-pbs/qchem3786813//
 Processing $rem in /apps/qchem/5.4.1/config/preferences:
 Processing $rem in /home/561/yj5695/.qchemrc:
 Symmetry turned off for PCM/SM12/SMD calculation
 Method-specific promolecule density matrix will be built for SM12 calculation

 Checking the input file for inconsistencies... 	...done.

--------------------------------------------------------------
User input:
--------------------------------------------------------------
$molecule
0  1
C -1.1332370278  0.5919824052 -0.7229598022
N -1.7488572295  1.5052249534 -1.3842224561
N -1.1497684143  1.6988567764 -2.5723259277
C -0.0550085922  0.9428224419 -2.8477359296
N  0.5914530776  1.0566856858 -3.9730921758
S  0.2560403519 -0.1315218304 -1.4829244966
S -1.6587008615  0.171114553  0.9283419519
O -3.102596092  0.3327401894  0.9771682963
O -1.028641044 -1.1137927787  1.2027219989
N -1.0098065156  1.2577119031  1.9613677248
H -1.3575714046  2.20814805  1.8159398108
C -1.6864043959  2.6866782512 -3.5054818192
H -2.5512871234  3.1425087724 -3.0278597488
H -1.9816485066  2.189620032 -4.430441621
H -0.9256770652  3.4404877228 -3.7120744903
H  0.0114849889  1.2241255025  1.987934508
C  1.6913541484  0.2415142582 -4.14389784
C  2.4079289602  0.4139614501 -5.448588701
O  2.0652862225 -0.5725701148 -3.2907349456
H  2.7533443703  1.4483949899 -5.5422811351
H  1.7167018799  0.2216017041 -6.2750846396
H  3.2568822728 -0.2673859175 -5.5080725622
$end

$rem
jobtype sp
exchange M062X
basis 6-31+G*
xc_grid 1
SMX_GAS_PHASE = TRUE
solvent_method sm12
$end

$smx
solvent water
charges mk
$end
--------------------------------------------------------------
 ----------------------------------------------------------------
             Standard Nuclear Orientation (Angstroms)
    I     Atom           X                Y                Z
 ----------------------------------------------------------------
    1      C      -1.1332370278     0.5919824052    -0.7229598022
    2      N      -1.7488572295     1.5052249534    -1.3842224561
    3      N      -1.1497684143     1.6988567764    -2.5723259277
    4      C      -0.0550085922     0.9428224419    -2.8477359296
    5      N       0.5914530776     1.0566856858    -3.9730921758
    6      S       0.2560403519    -0.1315218304    -1.4829244966
    7      S      -1.6587008615     0.1711145530     0.9283419519
    8      O      -3.1025960920     0.3327401894     0.9771682963
    9      O      -1.0286410440    -1.1137927787     1.2027219989
   10      N      -1.0098065156     1.2577119031     1.9613677248
   11      H      -1.3575714046     2.2081480500     1.8159398108
   12      C      -1.6864043959     2.6866782512    -3.5054818192
   13      H      -2.5512871234     3.1425087724    -3.0278597488
   14      H      -1.9816485066     2.1896200320    -4.4304416210
   15      H      -0.9256770652     3.4404877228    -3.7120744903
   16      H       0.0114849889     1.2241255025     1.9879345080
   17      C       1.6913541484     0.2415142582    -4.1438978400
   18      C       2.4079289602     0.4139614501    -5.4485887010
   19      O       2.0652862225    -0.5725701148    -3.2907349456
   20      H       2.7533443703     1.4483949899    -5.5422811351
   21      H       1.7167018799     0.2216017041    -6.2750846396
   22      H       3.2568822728    -0.2673859175    -5.5080725622
 ----------------------------------------------------------------
 Nuclear Repulsion Energy =        1198.69118660 hartrees
 There are       61 alpha and       61 beta electrons
 Requested basis set is 6-31+G(d)
 There are 88 shells and 290 basis functions

 Total QAlloc Memory Limit   2000 MB
 Mega-Array Size       188 MB
 MEM_STATIC part       192 MB
 A cutoff of  1.0D-08 yielded   2777 shell pairs
 There are     33039 function pairs
 Smallest overlap matrix eigenvalue = 1.32E-05

 Q-Chem warning in module stvman/mkSTV.C, line 323:

 Overlap eigenvalue is smaller than square root of threshold
 Use THRESH >= 12 to get rid of this warning


 Scale SEOQF with 1.000000e-01/1.000000e-01/1.000000e-02

 Standard Electronic Orientation quadrupole field applied
 Nucleus-field energy     =     0.0000000127 hartrees
 ================ Generating on-the-fly Promolecule Density  ================
Attempting to make child job directory: /jobfs/40841456.gadi-pbs/qchem3786813//Frg1/
Attempting to make child job directory: /jobfs/40841456.gadi-pbs/qchem3786813//Frg2/
Attempting to make child job directory: /jobfs/40841456.gadi-pbs/qchem3786813//Frg3/
Attempting to make child job directory: /jobfs/40841456.gadi-pbs/qchem3786813//Frg4/
Attempting to make child job directory: /jobfs/40841456.gadi-pbs/qchem3786813//Frg5/
Creating input file /jobfs/40841456.gadi-pbs/qchem3786813/Frg1.input
using default PutDataFrgm: nothing
calling putenv with: QCSCRATCH=/jobfs/40841456.gadi-pbs/qchem3786813/ 
Spawning Job For Fragment 0
Done Job For Fragment 0
calling putenv with: QCSCRATCH=/jobfs/40841456.gadi-pbs 
calling putenv with: QCTHREADS=16 
Creating input file /jobfs/40841456.gadi-pbs/qchem3786813/Frg2.input
using default PutDataFrgm: nothing
calling putenv with: QCSCRATCH=/jobfs/40841456.gadi-pbs/qchem3786813/ 
Spawning Job For Fragment 1
Done Job For Fragment 1
calling putenv with: QCSCRATCH=/jobfs/40841456.gadi-pbs 
calling putenv with: QCTHREADS=16 
Creating input file /jobfs/40841456.gadi-pbs/qchem3786813/Frg3.input
using default PutDataFrgm: nothing
calling putenv with: QCSCRATCH=/jobfs/40841456.gadi-pbs/qchem3786813/ 
Spawning Job For Fragment 2
Done Job For Fragment 2
calling putenv with: QCSCRATCH=/jobfs/40841456.gadi-pbs 
calling putenv with: QCTHREADS=16 
Creating input file /jobfs/40841456.gadi-pbs/qchem3786813/Frg4.input
using default PutDataFrgm: nothing
calling putenv with: QCSCRATCH=/jobfs/40841456.gadi-pbs/qchem3786813/ 
Spawning Job For Fragment 3
Done Job For Fragment 3
calling putenv with: QCSCRATCH=/jobfs/40841456.gadi-pbs 
calling putenv with: QCTHREADS=16 
Creating input file /jobfs/40841456.gadi-pbs/qchem3786813/Frg5.input
using default PutDataFrgm: nothing
calling putenv with: QCSCRATCH=/jobfs/40841456.gadi-pbs/qchem3786813/ 
Spawning Job For Fragment 4
Done Job For Fragment 4
calling putenv with: QCSCRATCH=/jobfs/40841456.gadi-pbs 
calling putenv with: QCTHREADS=16 
 Time for running child jobs:  CPU 2.40 s  wall 2.03 s
 ============= Method Specific Promolecule Density Constructed =============
 Guess from superposition of atomic densities
 Warning:  Energy on first SCF cycle will be non-variational
 SAD guess density has 122.000000 electrons

 -----------------------------------------------------------------------
  General SCF calculation program by
  Eric Jon Sundstrom, Paul Horn, Yuezhi Mao, Dmitri Zuev, Alec White,
  David Stuck, Shaama M.S., Shane Yost, Joonho Lee, David Small,
  Daniel Levine, Susi Lehtola, Hugh Burton, Evgeny Epifanovsky,
  Bang C. Huynh
 -----------------------------------------------------------------------
 Exchange:     0.5400 Hartree-Fock + 1.0000 M06-2X
 Correlation:  1.0000 M06-2X
 Using SG-1 standard quadrature grid
 using 16 threads for integral computing
 -------------------------------------------------------
 OpenMP Integral computing Module                
 Release: version 1.0, May 2013, Q-Chem Inc. Pittsburgh 
 -------------------------------------------------------
 A restricted SCF calculation will be
 performed using DIIS
 SCF converges when DIIS error is below 1.0e-05
 ---------------------------------------
  Cycle       Energy         DIIS error
 ---------------------------------------
    1   -1440.3363672218      4.55e-02  
    2   -1435.6495202418      6.25e-03  
    3   -1435.2026528850      9.87e-03  
    4   -1435.9980554320      9.29e-04  
    5   -1436.0051697716      4.52e-04  
    6   -1436.0070545024      1.23e-04  
    7   -1436.0071937393      4.78e-05  
    8   -1436.0072207223      1.60e-05  
    9   -1436.0072257282      7.05e-06  Convergence criterion met
 ---------------------------------------
 SCF time:   CPU 76.17s  wall 5.00s 
 SCF   energy in the final basis set =    -1436.0072257282
 Total energy in the final basis set =    -1436.0072257282
 Exchange:     0.5400 Hartree-Fock + 1.0000 M06-2X
 Correlation:  1.0000 M06-2X
 Using SG-1 standard quadrature grid
 
 SM12 calculation using Merz-Singh-Kollman charges
 Citation of the SM12 model:
 Marenich, A.V.; Cramer, C.J.; Truhlar, D.G.
 J. Chem. Theory Comput. 2013, 9, 609-612.
 iSolventCode=           1
 Solvent: water                                                           
 
  Building new vdw surfaces
         Merz-Kollman ESP Net Atomic Charges

     Atom                 Charge (a.u.)
  ----------------------------------------
      1 C                    -0.043897
      2 N                    -0.454486
      3 N                     0.495083
      4 C                     0.243062
      5 N                    -0.759672
      6 S                     0.111336
      7 S                     1.060953
      8 O                    -0.460398
      9 O                    -0.473202
     10 N                    -0.826665
     11 H                     0.408398
     12 C                    -0.462877
     13 H                     0.184538
     14 H                     0.187464
     15 H                     0.155491
     16 H                     0.385417
     17 C                     0.980337
     18 C                    -0.782384
     19 O                    -0.581446
     20 H                     0.211449
     21 H                     0.222132
     22 H                     0.199367
  ----------------------------------------
  Sum of atomic charges =     0.000000

  Related Dipole Moment =     6.6279 (X  1.2577 Y  6.0607 Z -2.3696)


 Charges (in A.U.) from Merz-Kollman fitting 
 -----------------------------------------------
 Center     Atomic                  MZ       
 Number     Number                  Charge
 -----------------------------------------------
    1          6                   -0.043897
    2          7                   -0.454486
    3          7                    0.495083
    4          6                    0.243062
    5          7                   -0.759672
    6         16                    0.111336
    7         16                    1.060953
    8          8                   -0.460398
    9          8                   -0.473202
   10          7                   -0.826665
   11          1                    0.408398
   12          6                   -0.462877
   13          1                    0.184538
   14          1                    0.187464
   15          1                    0.155491
   16          1                    0.385417
   17          6                    0.980337
   18          6                   -0.782384
   19          8                   -0.581446
   20          1                    0.211449
   21          1                    0.222132
   22          1                    0.199367
 -----------------------------------------------
 A restricted SCF calculation will be
 performed using Roothaan-Hall, DIIS
 SCF converges when DIIS error is below 1.0e-05
 ---------------------------------------
  Cycle       Energy         DIIS error
 ---------------------------------------
         Merz-Kollman ESP Net Atomic Charges

     Atom                 Charge (a.u.)
  ----------------------------------------
      1 C                    -0.027959
      2 N                    -0.452244
      3 N                     0.501782
      4 C                     0.289331
      5 N                    -0.790907
      6 S                     0.085061
      7 S                     1.095391
      8 O                    -0.518274
      9 O                    -0.520993
     10 N                    -0.809193
     11 H                     0.427136
     12 C                    -0.448988
     13 H                     0.191799
     14 H                     0.193224
     15 H                     0.159532
     16 H                     0.403121
     17 C                     0.987737
     18 C                    -0.787641
     19 O                    -0.635905
     20 H                     0.222678
     21 H                     0.233689
     22 H                     0.201624
  ----------------------------------------
  Sum of atomic charges =     0.000000

  Related Dipole Moment =     8.0246 (X  1.0641 Y  7.4960 Z -2.6593)


 Charges (in A.U.) from Merz-Kollman fitting 
 -----------------------------------------------
 Center     Atomic                  MZ       
 Number     Number                  Charge
 -----------------------------------------------
    1          6                   -0.027959
    2          7                   -0.452244
    3          7                    0.501782
    4          6                    0.289331
    5          7                   -0.790907
    6         16                    0.085061
    7         16                    1.095391
    8          8                   -0.518274
    9          8                   -0.520993
   10          7                   -0.809193
   11          1                    0.427136
   12          6                   -0.448988
   13          1                    0.191799
   14          1                    0.193224
   15          1                    0.159532
   16          1                    0.403121
   17          6                    0.987737
   18          6                   -0.787641
   19          8                   -0.635905
   20          1                    0.222678
   21          1                    0.233689
   22          1                    0.201624
 -----------------------------------------------
    1   -1436.0072257249      4.35e-04  Roothaan Step
 ---------------------------------------
  Cycle       Energy         DIIS error
 ---------------------------------------
         Merz-Kollman ESP Net Atomic Charges

     Atom                 Charge (a.u.)
  ----------------------------------------
      1 C                    -0.023263
      2 N                    -0.459865
      3 N                     0.457723
      4 C                     0.279144
      5 N                    -0.790876
      6 S                     0.105939
      7 S                     1.044923
      8 O                    -0.485939
      9 O                    -0.494021
     10 N                    -0.814996
     11 H                     0.426806
     12 C                    -0.452916
     13 H                     0.199197
     14 H                     0.202884
     15 H                     0.163547
     16 H                     0.401937
     17 C                     0.985586
     18 C                    -0.806270
     19 O                    -0.607169
     20 H                     0.224540
     21 H                     0.238137
     22 H                     0.204953
  ----------------------------------------
  Sum of atomic charges =     0.000000

  Related Dipole Moment =     7.5393 (X  1.1883 Y  6.9797 Z -2.5910)


 Charges (in A.U.) from Merz-Kollman fitting 
 -----------------------------------------------
 Center     Atomic                  MZ       
 Number     Number                  Charge
 -----------------------------------------------
    1          6                   -0.023263
    2          7                   -0.459865
    3          7                    0.457723
    4          6                    0.279144
    5          7                   -0.790876
    6         16                    0.105939
    7         16                    1.044923
    8          8                   -0.485939
    9          8                   -0.494021
   10          7                   -0.814996
   11          1                    0.426806
   12          6                   -0.452916
   13          1                    0.199197
   14          1                    0.202884
   15          1                    0.163547
   16          1                    0.401937
   17          6                    0.985586
   18          6                   -0.806270
   19          8                   -0.607169
   20          1                    0.224540
   21          1                    0.238137
   22          1                    0.204953
 -----------------------------------------------
    1   -1436.0007196878      3.59e-04  
         Merz-Kollman ESP Net Atomic Charges

     Atom                 Charge (a.u.)
  ----------------------------------------
      1 C                    -0.022923
      2 N                    -0.458576
      3 N                     0.485760
      4 C                     0.287662
      5 N                    -0.796670
      6 S                     0.093412
      7 S                     1.085392
      8 O                    -0.511331
      9 O                    -0.515148
     10 N                    -0.811156
     11 H                     0.427191
     12 C                    -0.457560
     13 H                     0.198166
     14 H                     0.201152
     15 H                     0.163646
     16 H                     0.402645
     17 C                     0.995498
     18 C                    -0.800413
     19 O                    -0.632298
     20 H                     0.224508
     21 H                     0.237108
     22 H                     0.203936
  ----------------------------------------
  Sum of atomic charges =     0.000000

  Related Dipole Moment =     7.9054 (X  1.0664 Y  7.3732 Z -2.6447)


 Charges (in A.U.) from Merz-Kollman fitting 
 -----------------------------------------------
 Center     Atomic                  MZ       
 Number     Number                  Charge
 -----------------------------------------------
    1          6                   -0.022923
    2          7                   -0.458576
    3          7                    0.485760
    4          6                    0.287662
    5          7                   -0.796670
    6         16                    0.093412
    7         16                    1.085392
    8          8                   -0.511331
    9          8                   -0.515148
   10          7                   -0.811156
   11          1                    0.427191
   12          6                   -0.457560
   13          1                    0.198166
   14          1                    0.201152
   15          1                    0.163646
   16          1                    0.402645
   17          6                    0.995498
   18          6                   -0.800413
   19          8                   -0.632298
   20          1                    0.224508
   21          1                    0.237108
   22          1                    0.203936
 -----------------------------------------------
    2   -1436.0022178380      4.68e-04  
         Merz-Kollman ESP Net Atomic Charges

     Atom                 Charge (a.u.)
  ----------------------------------------
      1 C                    -0.023932
      2 N                    -0.457704
      3 N                     0.483834
      4 C                     0.289719
      5 N                    -0.798720
      6 S                     0.094573
      7 S                     1.078979
      8 O                    -0.509892
      9 O                    -0.513913
     10 N                    -0.809357
     11 H                     0.427742
     12 C                    -0.455560
     13 H                     0.198290
     14 H                     0.201367
     15 H                     0.163778
     16 H                     0.403089
     17 C                     0.992067
     18 C                    -0.800938
     19 O                    -0.630131
     20 H                     0.224930
     21 H                     0.237542
     22 H                     0.204238
  ----------------------------------------
  Sum of atomic charges =     0.000000

  Related Dipole Moment =     7.9205 (X  1.0627 Y  7.3929 Z -2.6362)


 Charges (in A.U.) from Merz-Kollman fitting 
 -----------------------------------------------
 Center     Atomic                  MZ       
 Number     Number                  Charge
 -----------------------------------------------
    1          6                   -0.023932
    2          7                   -0.457704
    3          7                    0.483834
    4          6                    0.289719
    5          7                   -0.798720
    6         16                    0.094573
    7         16                    1.078979
    8          8                   -0.509892
    9          8                   -0.513913
   10          7                   -0.809357
   11          1                    0.427742
   12          6                   -0.455560
   13          1                    0.198290
   14          1                    0.201367
   15          1                    0.163778
   16          1                    0.403089
   17          6                    0.992067
   18          6                   -0.800938
   19          8                   -0.630131
   20          1                    0.224930
   21          1                    0.237542
   22          1                    0.204238
 -----------------------------------------------
    3   -1436.0017487154      3.53e-05  
         Merz-Kollman ESP Net Atomic Charges

     Atom                 Charge (a.u.)
  ----------------------------------------
      1 C                    -0.022219
      2 N                    -0.458689
      3 N                     0.483248
      4 C                     0.289010
      5 N                    -0.798409
      6 S                     0.094601
      7 S                     1.080304
      8 O                    -0.510279
      9 O                    -0.514143
     10 N                    -0.810140
     11 H                     0.427800
     12 C                    -0.456823
     13 H                     0.198842
     14 H                     0.202055
     15 H                     0.164242
     16 H                     0.403121
     17 C                     0.994520
     18 C                    -0.801504
     19 O                    -0.632310
     20 H                     0.224920
     21 H                     0.237638
     22 H                     0.204212
  ----------------------------------------
  Sum of atomic charges =     0.000000

  Related Dipole Moment =     7.9239 (X  1.0526 Y  7.3968 Z -2.6398)


 Charges (in A.U.) from Merz-Kollman fitting 
 -----------------------------------------------
 Center     Atomic                  MZ       
 Number     Number                  Charge
 -----------------------------------------------
    1          6                   -0.022219
    2          7                   -0.458689
    3          7                    0.483248
    4          6                    0.289010
    5          7                   -0.798409
    6         16                    0.094601
    7         16                    1.080304
    8          8                   -0.510279
    9          8                   -0.514143
   10          7                   -0.810140
   11          1                    0.427800
   12          6                   -0.456823
   13          1                    0.198842
   14          1                    0.202055
   15          1                    0.164242
   16          1                    0.403121
   17          6                    0.994520
   18          6                   -0.801504
   19          8                   -0.632310
   20          1                    0.224920
   21          1                    0.237638
   22          1                    0.204212
 -----------------------------------------------
    4   -1436.0015762123      1.92e-05  
    5   -1436.0015300882      6.75e-06  Convergence criterion met
 ---------------------------------------
 SCF time:   CPU 77.17s  wall 4.00s 
(0)  E-EN(g) gas-phase elect-nuc energy                -1436.007225728 a.u.
(1)  E-EN(liq) elect-nuc energy of solute              -1436.001530088 a.u.
(2)  G-P(liq) polarization free energy of solvation           -22.8507 kcal/mol
(3)  G-ENP(liq) elect-nuc-pol free energy of system    -1436.037945054 a.u.
(4)  G-CDS(liq) cavity-dispersion-solvent structure 
     free energy                                                1.2432 kcal/mol
(5)  G-P-CDS(liq) = G-P(liq) + G-CDS(liq) = (2) + (4)         -21.6076 kcal/mol
(6)  G-S(liq) free energy of system = (1) + (5)        -1436.035963967 a.u.
(7)  DeltaE-EN(liq) elect-nuc reorganization
     energy of solute molecule (7) = (1) - (0)                  3.5741 kcal/mol
(8)  DeltaG-ENP(liq) elect-nuc-pol free energy
     of solvation (8) = (3) - (0)                             -19.2767 kcal/mol
(9)  DeltaG-S(liq) free energy of  solvation
     (9) = (6) - (0)                                          -18.0335 kcal/mol
 SCF   energy in the final basis set =    -1436.0359639665
 Total energy in the final basis set =    -1436.0359639665
 
 --------------------------------------------------------------
 
                    Orbital Energies (a.u.)
 --------------------------------------------------------------
 
 Alpha MOs
 -- Occupied --
-90.1991 -90.0027 -19.6730 -19.6725 -19.6478 -14.8897 -14.8596 -14.8188
-14.7728 -10.6982 -10.6740 -10.6649 -10.5954 -10.5518  -8.5072  -8.3448
 -6.4293  -6.4287  -6.4284  -6.2647  -6.2626  -6.2590  -1.2780  -1.2272
 -1.1849  -1.1629  -1.0622  -1.0485  -1.0003  -0.9320  -0.8508  -0.8443
 -0.8007  -0.7456  -0.6944  -0.6714  -0.6313  -0.6204  -0.6040  -0.5954
 -0.5837  -0.5760  -0.5489  -0.5337  -0.5330  -0.5008  -0.4965  -0.4760
 -0.4670  -0.4590  -0.4511  -0.4371  -0.4313  -0.4250  -0.4162  -0.4088
 -0.4011  -0.3804  -0.3740  -0.3456  -0.3093
 -- Virtual --
 -0.0406  -0.0096  -0.0094   0.0115   0.0276   0.0304   0.0367   0.0426
  0.0517   0.0546   0.0577   0.0609   0.0641   0.0681   0.0740   0.0770
  0.0836   0.0859   0.0918   0.0939   0.1004   0.1069   0.1161   0.1172
  0.1192   0.1263   0.1404   0.1433   0.1454   0.1485   0.1568   0.1632
  0.1675   0.1736   0.1794   0.1883   0.1966   0.1994   0.2109   0.2136
  0.2193   0.2277   0.2316   0.2349   0.2417   0.2440   0.2519   0.2536
  0.2571   0.2602   0.2645   0.2694   0.2819   0.2837   0.2953   0.2994
  0.3005   0.3043   0.3132   0.3158   0.3193   0.3263   0.3333   0.3390
  0.3430   0.3535   0.3583   0.3633   0.3718   0.3838   0.3898   0.4054
  0.4120   0.4226   0.4351   0.4392   0.4557   0.4637   0.4810   0.5085
  0.5204   0.5418   0.5671   0.5718   0.5852   0.6181   0.6359   0.6414
  0.6742   0.6892   0.6986   0.7041   0.7199   0.7246   0.7369   0.7584
  0.7632   0.7773   0.7957   0.8003   0.8563   0.8800   0.8973   0.9102
  0.9213   0.9332   0.9523   0.9667   0.9726   0.9923   0.9993   1.0090
  1.0173   1.0283   1.0452   1.0457   1.0602   1.0616   1.0740   1.0803
  1.0815   1.1020   1.1126   1.1190   1.1263   1.1432   1.1548   1.1671
  1.1832   1.1910   1.2133   1.2392   1.2652   1.2785   1.2909   1.3093
  1.3191   1.3376   1.3419   1.3494   1.3655   1.3719   1.3757   1.3930
  1.4032   1.4121   1.4168   1.4423   1.4538   1.4732   1.4847   1.5162
  1.5496   1.5581   1.6146   1.6303   1.6470   1.6773   1.7081   1.7307
  1.7399   1.7539   1.7747   1.8153   1.8314   1.8404   1.8427   1.8508
  1.8769   1.8892   1.9076   1.9174   1.9548   1.9777   1.9878   1.9885
  2.0101   2.0293   2.0347   2.1003   2.1240   2.1347   2.1376   2.1524
  2.1700   2.2208   2.2716   2.2786   2.3118   2.3145   2.3195   2.3663
  2.3755   2.3805   2.3880   2.4493   2.4566   2.4657   2.4814   2.4916
  2.5048   2.5762   2.5966   2.6316   2.7015   2.8138   2.8248   2.8745
  2.9098   2.9284   2.9762   3.0631   3.1097   3.1960   3.2572   3.8636
  3.9870   4.0509   4.1051   4.1610   4.2066   4.2726   4.2817   4.3354
  4.3784   4.4045   4.4639   4.4714   4.6344
 --------------------------------------------------------------
 
          Ground-State Mulliken Net Atomic Charges

     Atom                 Charge (a.u.)
  ----------------------------------------
      1 C                    -0.856800
      2 N                    -0.151716
      3 N                     0.240291
      4 C                    -0.288616
      5 N                    -0.384316
      6 S                     0.742303
      7 S                     1.436940
      8 O                    -0.685500
      9 O                    -0.720191
     10 N                    -0.777184
     11 H                     0.518929
     12 C                    -0.238562
     13 H                     0.288822
     14 H                     0.288395
     15 H                     0.280996
     16 H                     0.513275
     17 C                     0.384549
     18 C                    -0.709276
     19 O                    -0.673384
     20 H                     0.269819
     21 H                     0.271717
     22 H                     0.249508
  ----------------------------------------
  Sum of atomic charges =     0.000000

         Merz-Kollman ESP Net Atomic Charges

     Atom                 Charge (a.u.)
  ----------------------------------------
      1 C                    -0.022833
      2 N                    -0.458534
      3 N                     0.483805
      4 C                     0.289335
      5 N                    -0.799096
      6 S                     0.094697
      7 S                     1.081041
      8 O                    -0.510504
      9 O                    -0.514403
     10 N                    -0.810042
     11 H                     0.427729
     12 C                    -0.457255
     13 H                     0.198947
     14 H                     0.202193
     15 H                     0.164348
     16 H                     0.403047
     17 C                     0.994433
     18 C                    -0.801620
     19 O                    -0.632086
     20 H                     0.224911
     21 H                     0.237640
     22 H                     0.204247
  ----------------------------------------
  Sum of atomic charges =     0.000000

  Related Dipole Moment =     7.9232 (X  1.0494 Y  7.3978 Z -2.6359)

 -----------------------------------------------------------------
                    Cartesian Multipole Moments
 -----------------------------------------------------------------
    Charge (ESU x 10^10)
                 0.0000
    Dipole Moment (Debye)
         X       1.0542      Y       7.4091      Z      -2.6490
       Tot       7.9387
    Quadrupole Moments (Debye-Ang)
        XX    -109.3385     XY      -3.0826     YY     -85.7122
        XZ      12.6967     YZ      -4.7960     ZZ     -81.1863
    Octopole Moments (Debye-Ang^2)
       XXX     161.8809    XXY     -41.8258    XYY      19.9623
       YYY    -126.6772    XXZ     119.7040    XYZ       4.3990
       YYZ     135.2208    XZZ      39.7847    YZZ      -8.1252
       ZZZ     357.2433
    Hexadecapole Moments (Debye-Ang^3)
      XXXX   -1728.6492   XXXY     223.7029   XXYY    -360.7433
      XYYY     138.3651   YYYY    -705.5482   XXXZ     571.0341
      XXYZ      71.0140   XYYZ     223.8101   YYYZ     356.0879
      XXZZ    -887.5616   XYZZ      29.6398   YYZZ    -779.7418
      XZZZ     456.2571   YZZZ     312.4565   ZZZZ   -3944.9623
 -----------------------------------------------------------------
 Total job time:  12.27s(wall), 162.36s(cpu) 
 Sat May 21 13:29:45 2022

        *************************************************************
        *                                                           *
        *  Thank you very much for using Q-Chem.  Have a nice day.  *
        *                                                           *
        *************************************************************


