                  Welcome to Q-Chem
     A Quantum Leap Into The Future Of Chemistry


 Q-Chem 5.4 (devel), Q-Chem, Inc., Pleasanton, CA (2021)

 E. Epifanovsky,  A. T. B. Gilbert,  Xintian Feng,  Joonho Lee,  Yuezhi Mao,  
 N. Mardirossian,  P. Pokhilko,  A. White,  M. Wormit,  M. P. Coons,  
 A. L. Dempwolff,  Zhengting Gan,  D. Hait,  P. R. Horn,  L. D. Jacobson,  
 I. Kaliman,  J. Kussmann,  A. W. Lange,  Ka Un Lao,  D. S. Levine,  Jie Liu,  
 S. C. McKenzie,  A. F. Morrison,  K. Nanda,  F. Plasser,  D. R. Rehn,  
 M. L. Vidal,  Zhi-Qiang You,  Ying Zhu,  B. Alam,  B. Albrecht,  
 A. Aldossary,  E. Alguire,  J. H. Andersen,  D. Barton,  K. Begam,  A. Behn,  
 Y. A. Bernard,  E. J. Berquist,  H. Burton,  A. Carreras,  K. Carter-Fenk,  
 R. Chakraborty,  A. D. Chien,  K. D. Closser,  V. Cofer-Shabica,  
 S. Dasgupta,  Jia Deng,  M. de Wergifosse,  M. Diedenhofen,  Hainam Do,  
 S. Ehlert,  Po-Tung Fang,  S. Fatehi,  Qingguo Feng,  T. Friedhoff,  
 J. Gayvert,  Qinghui Ge,  G. Gidofalvi,  M. Goldey,  J. Gomes,  
 C. Gonzalez-Espinoza,  S. Gulania,  A. Gunina,  M. W. D. Hanson-Heine,  
 P. H. P. Harbach,  A. W. Hauser,  M. F. Herbst,  M. Hernandez Vera,  
 M. Hodecker,  Z. C. Holden,  S. Houck,  Xunkun Huang,  Kerwin Hui,  
 B. C. Huynh,  M. Ivanov,  Hyunjun Ji,  Hanjie Jiang,  B. Kaduk,  S. Kaehler,  
 K. Khistyaev,  Jaehoon Kim,  P. Klunzinger,  Z. Koczor-Benda,  
 Joong Hoon Koh,  D. Kosenkov,  L. Koulias,  T. Kowalczyk,  C. M. Krauter,  
 K. Kue,  A. Kunitsa,  T. Kus,  A. Landau,  K. V. Lawler,  D. Lefrancois,  
 S. Lehtola,  Rain Li,  Yi-Pei Li,  Jiashu Liang,  M. Liebenthal,  
 Hung-Hsuan Lin,  You-Sheng Lin,  Fenglai Liu,  Kuan-Yu Liu,  
 M. Loipersberger,  A. Luenser,  A. Manjanath,  P. Manohar,  E. Mansoor,  
 S. F. Manzer,  Shan-Ping Mao,  A. V. Marenich,  T. Markovich,  S. Mason,  
 S. A. Maurer,  P. F. McLaughlin,  M. F. S. J. Menger,  J.-M. Mewes,  
 S. A. Mewes,  P. Morgante,  J. W. Mullinax,  K. J. Oosterbaan,  G. Paran,  
 Alexander C. Paul,  Suranjan K. Paul,  F. Pavosevic,  Zheng Pei,  S. Prager,  
 E. I. Proynov,  E. Ramos,  B. Rana,  A. E. Rask,  A. Rettig,  R. M. Richard,  
 F. Rob,  E. Rossomme,  T. Scheele,  M. Scheurer,  M. Schneider,  
 N. Sergueev,  S. M. Sharada,  W. Skomorowski,  D. W. Small,  C. J. Stein,  
 Yu-Chuan Su,  E. J. Sundstrom,  Zhen Tao,  J. Thirman,  T. Tsuchimochi,  
 N. M. Tubman,  S. P. Veccham,  O. Vydrov,  J. Wenzel,  J. Witte,  A. Yamada,  
 Kun Yao,  S. Yeganeh,  S. R. Yost,  A. Zech,  Igor Ying Zhang,  Xing Zhang,  
 Yu Zhang,  D. Zuev,  A. Aspuru-Guzik,  A. T. Bell,  N. A. Besley,  
 K. B. Bravaya,  B. R. Brooks,  D. Casanova,  Jeng-Da Chai,  S. Coriani,  
 C. J. Cramer,  A. E. DePrince, III,  R. A. DiStasio Jr.,  A. Dreuw,  
 B. D. Dunietz,  T. R. Furlani,  W. A. Goddard III,  S. Grimme,  
 S. Hammes-Schiffer,  T. Head-Gordon,  W. J. Hehre,  Chao-Ping Hsu,  
 T.-C. Jagau,  Yousung Jung,  A. Klamt,  Jing Kong,  D. S. Lambrecht,  
 WanZhen Liang,  N. J. Mayhall,  C. W. McCurdy,  J. B. Neaton,  
 C. Ochsenfeld,  J. A. Parkhill,  R. Peverati,  V. A. Rassolov,  Yihan Shao,  
 L. V. Slipchenko,  T. Stauch,  R. P. Steele,  J. E. Subotnik,  
 A. J. W. Thom,  A. Tkatchenko,  D. G. Truhlar,  T. Van Voorhis,  
 T. A. Wesolowski,  K. B. Whaley,  H. L. Woodcock III,  P. M. Zimmerman,  
 S. Faraji,  P. M. W. Gill,  M. Head-Gordon,  J. M. Herbert,  A. I. Krylov

 Additional authors for Version 5.4.1: 
 S. Kotaru,  Shaozhi Li,  Xiangyuan Li,  F. Matz,  A. Molle,  Haisheng Ren,  
 Yingli Su,  Hung-Yi Tsai,  C. Utku,  Fang Wang

 Contributors to earlier versions of Q-Chem not listed above: 
 R. D. Adamson,  B. Austin,  R. Baer,  J. Baker,  G. J. O. Beran,  
 K. Brandhorst,  S. T. Brown,  E. F. C. Byrd,  A. K. Chakraborty,  
 G. K. L. Chan,  Chun-Min Chang,  Yunqing Chen,  C.-L. Cheng,  
 Siu Hung Chien,  D. M. Chipman,  D. L. Crittenden,  H. Dachsel,  
 R. J. Doerksen,  A. D. Dutoi,  R. G. Edgar,  J. Fosso-Tande,  
 L. Fusti-Molnar,  D. Ghosh,  A. Ghysels,  A. Golubeva-Zadorozhnaya,  
 J. Gonthier,  M. S. Gordon,  S. R. Gwaltney,  G. Hawkins,  J. E. Herr,  
 A. Heyden,  S. Hirata,  E. G. Hohenstein,  G. Kedziora,  F. J. Keil,  
 C. Kelley,  Jihan Kim,  R. A. King,  R. Z. Khaliullin,  P. P. Korambath,  
 W. Kurlancheek,  A. Laurent,  A. M. Lee,  M. S. Lee,  S. V. Levchenko,  
 Ching Yeh Lin,  D. Liotard,  E. Livshits,  R. C. Lochan,  I. Lotan,  
 L. A. Martinez-Martinez,  P. E. Maslen,  N. Nair,  D. P. O'Neill,  
 D. Neuhauser,  E. Neuscamman,  C. M. Oana,  R. Olivares-Amaya,  R. Olson,  
 T. M. Perrine,  B. Peters,  P. A. Pieniazek,  A. Prociuk,  Y. M. Rhee,  
 J. Ritchie,  M. A. Rohrdanz,  E. Rosta,  N. J. Russ,  H. F. Schaefer III,  
 M. W. Schmidt,  N. E. Schultz,  S. Sharma,  N. Shenvi,  C. D. Sherrill,  
 A. C. Simmonett,  A. Sodt,  T. Stein,  D. Stuck,  K. S. Thanthiriwatte,  
 V. Vanovschi,  L. Vogt,  Tao Wang,  A. Warshel,  M. A. Watson,  
 C. F. Williams,  Q. Wu,  X. Xu,  Jun Yang,  W. Zhang,  Yan Zhao

 Please cite Q-Chem as follows:
 Y. Shao et al., Mol. Phys. 113, 184-215 (2015)
 DOI: 10.1080/00268976.2014.952696

 Q-Chem 5.4.1 for Intel X86 EM64T Linux

 Parts of Q-Chem use Armadillo 9.800.1 (Horizon Scraper).
 http://arma.sourceforge.net/

 Q-Chem begins on Thu Jun 23 17:46:51 2022  

 Host: gadi-cpu-clx-2519.gadi.nci.org.au
0

     Scratch files written to /jobfs/45213078.gadi-pbs/qchem4067967//
 Processing $rem in /apps/qchem/5.4.1/config/preferences:
 Processing $rem in /home/561/yj5695/.qchemrc:
 Symmetry turned off for PCM/SM12/SMD calculation
 Method-specific promolecule density matrix will be built for SM12 calculation

 Checking the input file for inconsistencies... 	...done.

--------------------------------------------------------------
User input:
--------------------------------------------------------------
$molecule
0  1
C  1.109243  0.511688 -0.145535
C -1.266613  0.593799  0.226417
S -0.072047 -0.668854  0.340081
S  2.834202  0.053945 -0.281
O  2.877785 -1.376555  0.000545
O  3.332032  0.578213 -1.545114
N  3.654663  0.815306  0.912101
H  3.344836  0.53828  1.846115
N  0.717163  1.713824 -0.372968
C -0.65288  1.800262 -0.169073
C -2.642352  0.517864  0.467238
C -3.385829  1.677591  0.306853
C -2.782125  2.88878 -0.085814
C -1.421344  2.962618 -0.326871
H  3.664032  1.831771  0.801546
H -3.111354 -0.412738  0.769906
H -4.455747  1.649801  0.488491
H -3.396623  3.776094 -0.200698
H -0.943612  3.888852 -0.630662
$end

$rem
jobtype sp
exchange M062X
basis 6-31+G*
SMX_GAS_PHASE = TRUE
solvent_method sm12
$end

$smx
solvent water
charges mk
$end
--------------------------------------------------------------
 ----------------------------------------------------------------
             Standard Nuclear Orientation (Angstroms)
    I     Atom           X                Y                Z
 ----------------------------------------------------------------
    1      C       1.1092430000     0.5116880000    -0.1455350000
    2      C      -1.2666130000     0.5937990000     0.2264170000
    3      S      -0.0720470000    -0.6688540000     0.3400810000
    4      S       2.8342020000     0.0539450000    -0.2810000000
    5      O       2.8777850000    -1.3765550000     0.0005450000
    6      O       3.3320320000     0.5782130000    -1.5451140000
    7      N       3.6546630000     0.8153060000     0.9121010000
    8      H       3.3448360000     0.5382800000     1.8461150000
    9      N       0.7171630000     1.7138240000    -0.3729680000
   10      C      -0.6528800000     1.8002620000    -0.1690730000
   11      C      -2.6423520000     0.5178640000     0.4672380000
   12      C      -3.3858290000     1.6775910000     0.3068530000
   13      C      -2.7821250000     2.8887800000    -0.0858140000
   14      C      -1.4213440000     2.9626180000    -0.3268710000
   15      H       3.6640320000     1.8317710000     0.8015460000
   16      H      -3.1113540000    -0.4127380000     0.7699060000
   17      H      -4.4557470000     1.6498010000     0.4884910000
   18      H      -3.3966230000     3.7760940000    -0.2006980000
   19      H      -0.9436120000     3.8888520000    -0.6306620000
 ----------------------------------------------------------------
 Nuclear Repulsion Energy =        1011.14668269 hartrees
 There are       55 alpha and       55 beta electrons
 Requested basis set is 6-31+G(d)
 There are 79 shells and 267 basis functions

 Total QAlloc Memory Limit   2000 MB
 Mega-Array Size       188 MB
 MEM_STATIC part       192 MB
 A cutoff of  1.0D-08 yielded   2394 shell pairs
 There are     29493 function pairs
 Smallest overlap matrix eigenvalue = 1.81E-06

 Q-Chem warning in module stvman/mkSTV.C, line 323:

 Overlap eigenvalue is smaller than square root of threshold
 Use THRESH >= 12 to get rid of this warning


 Scale SEOQF with 1.000000e-01/1.000000e-01/1.000000e-01

 Standard Electronic Orientation quadrupole field applied
 Nucleus-field energy     =     0.0000000352 hartrees
 ================ Generating on-the-fly Promolecule Density  ================
Attempting to make child job directory: /jobfs/45213078.gadi-pbs/qchem4067967//Frg1/
Attempting to make child job directory: /jobfs/45213078.gadi-pbs/qchem4067967//Frg2/
Attempting to make child job directory: /jobfs/45213078.gadi-pbs/qchem4067967//Frg3/
Attempting to make child job directory: /jobfs/45213078.gadi-pbs/qchem4067967//Frg4/
Attempting to make child job directory: /jobfs/45213078.gadi-pbs/qchem4067967//Frg5/
Creating input file /jobfs/45213078.gadi-pbs/qchem4067967/Frg1.input
using default PutDataFrgm: nothing
calling putenv with: QCSCRATCH=/jobfs/45213078.gadi-pbs/qchem4067967/ 
Spawning Job For Fragment 0
Done Job For Fragment 0
calling putenv with: QCSCRATCH=/jobfs/45213078.gadi-pbs 
calling putenv with: QCTHREADS=16 
Creating input file /jobfs/45213078.gadi-pbs/qchem4067967/Frg2.input
using default PutDataFrgm: nothing
calling putenv with: QCSCRATCH=/jobfs/45213078.gadi-pbs/qchem4067967/ 
Spawning Job For Fragment 1
Done Job For Fragment 1
calling putenv with: QCSCRATCH=/jobfs/45213078.gadi-pbs 
calling putenv with: QCTHREADS=16 
Creating input file /jobfs/45213078.gadi-pbs/qchem4067967/Frg3.input
using default PutDataFrgm: nothing
calling putenv with: QCSCRATCH=/jobfs/45213078.gadi-pbs/qchem4067967/ 
Spawning Job For Fragment 2
Done Job For Fragment 2
calling putenv with: QCSCRATCH=/jobfs/45213078.gadi-pbs 
calling putenv with: QCTHREADS=16 
Creating input file /jobfs/45213078.gadi-pbs/qchem4067967/Frg4.input
using default PutDataFrgm: nothing
calling putenv with: QCSCRATCH=/jobfs/45213078.gadi-pbs/qchem4067967/ 
Spawning Job For Fragment 3
Done Job For Fragment 3
calling putenv with: QCSCRATCH=/jobfs/45213078.gadi-pbs 
calling putenv with: QCTHREADS=16 
Creating input file /jobfs/45213078.gadi-pbs/qchem4067967/Frg5.input
using default PutDataFrgm: nothing
calling putenv with: QCSCRATCH=/jobfs/45213078.gadi-pbs/qchem4067967/ 
Spawning Job For Fragment 4
Done Job For Fragment 4
calling putenv with: QCSCRATCH=/jobfs/45213078.gadi-pbs 
calling putenv with: QCTHREADS=16 
 Time for running child jobs:  CPU 2.11 s  wall 1.86 s
 ============= Method Specific Promolecule Density Constructed =============
 Guess from superposition of atomic densities
 Warning:  Energy on first SCF cycle will be non-variational
 SAD guess density has 110.000000 electrons

 -----------------------------------------------------------------------
  General SCF calculation program by
  Eric Jon Sundstrom, Paul Horn, Yuezhi Mao, Dmitri Zuev, Alec White,
  David Stuck, Shaama M.S., Shane Yost, Joonho Lee, David Small,
  Daniel Levine, Susi Lehtola, Hugh Burton, Evgeny Epifanovsky,
  Bang C. Huynh
 -----------------------------------------------------------------------
 Exchange:     0.5400 Hartree-Fock + 1.0000 M06-2X
 Correlation:  1.0000 M06-2X
 Using SG-3 standard quadrature grid
 using 16 threads for integral computing
 -------------------------------------------------------
 OpenMP Integral computing Module                
 Release: version 1.0, May 2013, Q-Chem Inc. Pittsburgh 
 -------------------------------------------------------
 A restricted SCF calculation will be
 performed using DIIS
 SCF converges when DIIS error is below 1.0e-05
 ---------------------------------------
  Cycle       Energy         DIIS error
 ---------------------------------------
    1   -1330.7107434345      4.76e-02  
    2   -1326.0570298006      5.98e-03  
    3   -1325.7257953013      9.33e-03  
    4   -1326.3315187038      8.56e-04  
    5   -1326.3362815586      4.42e-04  
    6   -1326.3377813060      1.06e-04  
    7   -1326.3378619584      4.08e-05  
    8   -1326.3378759024      1.02e-05  
    9   -1326.3378773612      4.92e-06  Convergence criterion met
 ---------------------------------------
 SCF time:   CPU 110.60s  wall 7.00s 
 SCF   energy in the final basis set =    -1326.3378773612
 Total energy in the final basis set =    -1326.3378773612
 Exchange:     0.5400 Hartree-Fock + 1.0000 M06-2X
 Correlation:  1.0000 M06-2X
 Using SG-3 standard quadrature grid
 
 SM12 calculation using Merz-Singh-Kollman charges
 Citation of the SM12 model:
 Marenich, A.V.; Cramer, C.J.; Truhlar, D.G.
 J. Chem. Theory Comput. 2013, 9, 609-612.
 iSolventCode=           1
 Solvent: water                                                           
 
  Building new vdw surfaces
         Merz-Kollman ESP Net Atomic Charges

     Atom                 Charge (a.u.)
  ----------------------------------------
      1 C                     0.052146
      2 C                    -0.084063
      3 S                     0.039001
      4 S                     1.020385
      5 O                    -0.483076
      6 O                    -0.450132
      7 N                    -0.816481
      8 H                     0.386516
      9 N                    -0.561419
     10 C                     0.653794
     11 C                    -0.178113
     12 C                    -0.283068
     13 C                    -0.013155
     14 C                    -0.455596
     15 H                     0.406009
     16 H                     0.213701
     17 H                     0.187504
     18 H                     0.143325
     19 H                     0.222722
  ----------------------------------------
  Sum of atomic charges =     0.000000

  Related Dipole Moment =     6.7637 (X -4.5807 Y  2.8097 Z  4.1074)


 Charges (in A.U.) from Merz-Kollman fitting 
 -----------------------------------------------
 Center     Atomic                  MZ       
 Number     Number                  Charge
 -----------------------------------------------
    1          6                    0.052146
    2          6                   -0.084063
    3         16                    0.039001
    4         16                    1.020385
    5          8                   -0.483076
    6          8                   -0.450132
    7          7                   -0.816481
    8          1                    0.386516
    9          7                   -0.561419
   10          6                    0.653794
   11          6                   -0.178113
   12          6                   -0.283068
   13          6                   -0.013155
   14          6                   -0.455596
   15          1                    0.406009
   16          1                    0.213701
   17          1                    0.187504
   18          1                    0.143325
   19          1                    0.222722
 -----------------------------------------------
 A restricted SCF calculation will be
 performed using Roothaan-Hall, DIIS
 SCF converges when DIIS error is below 1.0e-05
 ---------------------------------------
  Cycle       Energy         DIIS error
 ---------------------------------------
         Merz-Kollman ESP Net Atomic Charges

     Atom                 Charge (a.u.)
  ----------------------------------------
      1 C                     0.040173
      2 C                    -0.067879
      3 S                     0.051804
      4 S                     1.053779
      5 O                    -0.524340
      6 O                    -0.508413
      7 N                    -0.800277
      8 H                     0.405590
      9 N                    -0.585605
     10 C                     0.655241
     11 C                    -0.187015
     12 C                    -0.292474
     13 C                    -0.019602
     14 C                    -0.476269
     15 H                     0.424102
     16 H                     0.233956
     17 H                     0.202090
     18 H                     0.158277
     19 H                     0.236862
  ----------------------------------------
  Sum of atomic charges =     0.000000

  Related Dipole Moment =     7.9628 (X -5.4041 Y  3.1195 Z  4.9468)


 Charges (in A.U.) from Merz-Kollman fitting 
 -----------------------------------------------
 Center     Atomic                  MZ       
 Number     Number                  Charge
 -----------------------------------------------
    1          6                    0.040173
    2          6                   -0.067879
    3         16                    0.051804
    4         16                    1.053779
    5          8                   -0.524340
    6          8                   -0.508413
    7          7                   -0.800277
    8          1                    0.405590
    9          7                   -0.585605
   10          6                    0.655241
   11          6                   -0.187015
   12          6                   -0.292474
   13          6                   -0.019602
   14          6                   -0.476269
   15          1                    0.424102
   16          1                    0.233956
   17          1                    0.202090
   18          1                    0.158277
   19          1                    0.236862
 -----------------------------------------------
    1   -1326.3378781516      4.14e-04  Roothaan Step
 ---------------------------------------
  Cycle       Energy         DIIS error
 ---------------------------------------
         Merz-Kollman ESP Net Atomic Charges

     Atom                 Charge (a.u.)
  ----------------------------------------
      1 C                     0.057213
      2 C                    -0.086292
      3 S                     0.034510
      4 S                     1.012763
      5 O                    -0.508380
      6 O                    -0.478190
      7 N                    -0.815143
      8 H                     0.404344
      9 N                    -0.581208
     10 C                     0.670374
     11 C                    -0.193821
     12 C                    -0.286316
     13 C                    -0.022410
     14 C                    -0.469971
     15 H                     0.426642
     16 H                     0.237523
     17 H                     0.202811
     18 H                     0.159811
     19 H                     0.235741
  ----------------------------------------
  Sum of atomic charges =     0.000000

  Related Dipole Moment =     7.8817 (X -5.4259 Y  3.3490 Z  4.6330)


 Charges (in A.U.) from Merz-Kollman fitting 
 -----------------------------------------------
 Center     Atomic                  MZ       
 Number     Number                  Charge
 -----------------------------------------------
    1          6                    0.057213
    2          6                   -0.086292
    3         16                    0.034510
    4         16                    1.012763
    5          8                   -0.508380
    6          8                   -0.478190
    7          7                   -0.815143
    8          1                    0.404344
    9          7                   -0.581208
   10          6                    0.670374
   11          6                   -0.193821
   12          6                   -0.286316
   13          6                   -0.022410
   14          6                   -0.469971
   15          1                    0.426642
   16          1                    0.237523
   17          1                    0.202811
   18          1                    0.159811
   19          1                    0.235741
 -----------------------------------------------
    1   -1326.3334006626      2.93e-04  
         Merz-Kollman ESP Net Atomic Charges

     Atom                 Charge (a.u.)
  ----------------------------------------
      1 C                     0.054203
      2 C                    -0.075515
      3 S                     0.041675
      4 S                     1.050536
      5 O                    -0.523980
      6 O                    -0.504039
      7 N                    -0.807925
      8 H                     0.405021
      9 N                    -0.589709
     10 C                     0.662882
     11 C                    -0.191394
     12 C                    -0.289897
     13 C                    -0.021800
     14 C                    -0.474862
     15 H                     0.425669
     16 H                     0.237406
     17 H                     0.203827
     18 H                     0.160548
     19 H                     0.237353
  ----------------------------------------
  Sum of atomic charges =     0.000000

  Related Dipole Moment =     8.0220 (X -5.4971 Y  3.2450 Z  4.8585)


 Charges (in A.U.) from Merz-Kollman fitting 
 -----------------------------------------------
 Center     Atomic                  MZ       
 Number     Number                  Charge
 -----------------------------------------------
    1          6                    0.054203
    2          6                   -0.075515
    3         16                    0.041675
    4         16                    1.050536
    5          8                   -0.523980
    6          8                   -0.504039
    7          7                   -0.807925
    8          1                    0.405021
    9          7                   -0.589709
   10          6                    0.662882
   11          6                   -0.191394
   12          6                   -0.289897
   13          6                   -0.021800
   14          6                   -0.474862
   15          1                    0.425669
   16          1                    0.237406
   17          1                    0.203827
   18          1                    0.160548
   19          1                    0.237353
 -----------------------------------------------
    2   -1326.3340831308      3.68e-04  
         Merz-Kollman ESP Net Atomic Charges

     Atom                 Charge (a.u.)
  ----------------------------------------
      1 C                     0.047376
      2 C                    -0.074780
      3 S                     0.043698
      4 S                     1.043271
      5 O                    -0.522667
      6 O                    -0.501274
      7 N                    -0.806453
      8 H                     0.405426
      9 N                    -0.586751
     10 C                     0.663732
     11 C                    -0.192049
     12 C                    -0.290085
     13 C                    -0.021875
     14 C                    -0.475383
     15 H                     0.426275
     16 H                     0.238312
     17 H                     0.204433
     18 H                     0.161041
     19 H                     0.237752
  ----------------------------------------
  Sum of atomic charges =     0.000000

  Related Dipole Moment =     8.0701 (X -5.5450 Y  3.2725 Z  4.8652)


 Charges (in A.U.) from Merz-Kollman fitting 
 -----------------------------------------------
 Center     Atomic                  MZ       
 Number     Number                  Charge
 -----------------------------------------------
    1          6                    0.047376
    2          6                   -0.074780
    3         16                    0.043698
    4         16                    1.043271
    5          8                   -0.522667
    6          8                   -0.501274
    7          7                   -0.806453
    8          1                    0.405426
    9          7                   -0.586751
   10          6                    0.663732
   11          6                   -0.192049
   12          6                   -0.290085
   13          6                   -0.021875
   14          6                   -0.475383
   15          1                    0.426275
   16          1                    0.238312
   17          1                    0.204433
   18          1                    0.161041
   19          1                    0.237752
 -----------------------------------------------
    3   -1326.3337481376      3.44e-05  
         Merz-Kollman ESP Net Atomic Charges

     Atom                 Charge (a.u.)
  ----------------------------------------
      1 C                     0.052102
      2 C                    -0.075965
      3 S                     0.042474
      4 S                     1.045140
      5 O                    -0.523256
      6 O                    -0.502467
      7 N                    -0.807734
      8 H                     0.405541
      9 N                    -0.588869
     10 C                     0.663739
     11 C                    -0.192141
     12 C                    -0.289936
     13 C                    -0.021948
     14 C                    -0.475366
     15 H                     0.426479
     16 H                     0.238489
     17 H                     0.204611
     18 H                     0.161255
     19 H                     0.237852
  ----------------------------------------
  Sum of atomic charges =     0.000000

  Related Dipole Moment =     8.0731 (X -5.5492 Y  3.2725 Z  4.8655)


 Charges (in A.U.) from Merz-Kollman fitting 
 -----------------------------------------------
 Center     Atomic                  MZ       
 Number     Number                  Charge
 -----------------------------------------------
    1          6                    0.052102
    2          6                   -0.075965
    3         16                    0.042474
    4         16                    1.045140
    5          8                   -0.523256
    6          8                   -0.502467
    7          7                   -0.807734
    8          1                    0.405541
    9          7                   -0.588869
   10          6                    0.663739
   11          6                   -0.192141
   12          6                   -0.289936
   13          6                   -0.021948
   14          6                   -0.475366
   15          1                    0.426479
   16          1                    0.238489
   17          1                    0.204611
   18          1                    0.161255
   19          1                    0.237852
 -----------------------------------------------
    4   -1326.3336260680      2.05e-05  
    5   -1326.3335889121      5.39e-06  Convergence criterion met
 ---------------------------------------
 SCF time:   CPU 95.31s  wall 6.00s 
(0)  E-EN(g) gas-phase elect-nuc energy                -1326.337877361 a.u.
(1)  E-EN(liq) elect-nuc energy of solute              -1326.333588912 a.u.
(2)  G-P(liq) polarization free energy of solvation           -18.9201 kcal/mol
(3)  G-ENP(liq) elect-nuc-pol free energy of system    -1326.363740060 a.u.
(4)  G-CDS(liq) cavity-dispersion-solvent structure 
     free energy                                                0.3757 kcal/mol
(5)  G-P-CDS(liq) = G-P(liq) + G-CDS(liq) = (2) + (4)         -18.5445 kcal/mol
(6)  G-S(liq) free energy of system = (1) + (5)        -1326.363141408 a.u.
(7)  DeltaE-EN(liq) elect-nuc reorganization
     energy of solute molecule (7) = (1) - (0)                  2.6910 kcal/mol
(8)  DeltaG-ENP(liq) elect-nuc-pol free energy
     of solvation (8) = (3) - (0)                             -16.2291 kcal/mol
(9)  DeltaG-S(liq) free energy of  solvation
     (9) = (6) - (0)                                          -15.8534 kcal/mol
 SCF   energy in the final basis set =    -1326.3631414080
 Total energy in the final basis set =    -1326.3631414080
 
 --------------------------------------------------------------
 
                    Orbital Energies (a.u.)
 --------------------------------------------------------------
 
 Alpha MOs
 -- Occupied --
-90.1920 -89.9899 -19.6719 -19.6710 -14.8173 -14.8113 -10.6677 -10.6162
-10.6152 -10.5833 -10.5778 -10.5768 -10.5737  -8.5053  -8.3376  -6.4276
 -6.4271  -6.4266  -6.2577  -6.2557  -6.2531  -1.2749  -1.1602  -1.1191
 -1.0471  -0.9810  -0.9304  -0.8746  -0.8547  -0.7935  -0.7192  -0.7048
 -0.6899  -0.6303  -0.6293  -0.6023  -0.5869  -0.5793  -0.5490  -0.5323
 -0.5279  -0.5252  -0.4836  -0.4498  -0.4498  -0.4460  -0.4347  -0.4250
 -0.4131  -0.4112  -0.4015  -0.3890  -0.3749  -0.3176  -0.3076
 -- Virtual --
 -0.0484  -0.0083  -0.0002   0.0031   0.0215   0.0267   0.0274   0.0327
  0.0380   0.0409   0.0535   0.0602   0.0627   0.0664   0.0706   0.0747
  0.0816   0.0922   0.0945   0.1012   0.1055   0.1095   0.1186   0.1215
  0.1297   0.1378   0.1383   0.1466   0.1485   0.1523   0.1604   0.1680
  0.1727   0.1782   0.1840   0.1860   0.1892   0.1910   0.2023   0.2045
  0.2097   0.2152   0.2225   0.2272   0.2345   0.2359   0.2390   0.2429
  0.2467   0.2544   0.2632   0.2689   0.2727   0.2781   0.2935   0.2964
  0.3005   0.3064   0.3143   0.3149   0.3193   0.3217   0.3385   0.3403
  0.3445   0.3579   0.3702   0.3807   0.3876   0.4125   0.4246   0.4454
  0.4487   0.4687   0.5148   0.5178   0.5633   0.5836   0.5970   0.6080
  0.6445   0.6602   0.6626   0.6808   0.6916   0.7005   0.7085   0.7131
  0.7250   0.7415   0.7582   0.7587   0.7657   0.7737   0.7812   0.8074
  0.8301   0.8317   0.8840   0.9165   0.9276   0.9371   0.9455   0.9547
  0.9750   0.9836   0.9965   1.0094   1.0254   1.0336   1.0413   1.0619
  1.0704   1.0829   1.0997   1.1062   1.1174   1.1234   1.1390   1.1450
  1.1538   1.1659   1.1751   1.1913   1.2208   1.2289   1.2576   1.2736
  1.2841   1.3005   1.3056   1.3479   1.3559   1.3624   1.3662   1.3848
  1.3941   1.4095   1.4395   1.4541   1.4730   1.4745   1.5075   1.5253
  1.5328   1.5689   1.5954   1.6344   1.6896   1.7206   1.7369   1.7629
  1.8033   1.8155   1.8379   1.8467   1.8658   1.8985   1.9135   1.9160
  1.9367   1.9792   2.0055   2.0181   2.0277   2.0326   2.1107   2.1317
  2.1381   2.1488   2.1599   2.1640   2.1742   2.2386   2.2587   2.2688
  2.2706   2.3079   2.3116   2.3783   2.4349   2.4468   2.4780   2.4946
  2.5042   2.5436   2.6339   2.6531   2.6794   2.7380   2.7520   2.8011
  2.8677   2.8805   2.9027   2.9549   3.0172   3.1599   3.3862   3.8733
  3.9871   4.0527   4.1605   4.2145   4.2515   4.2822   4.3077   4.3379
  4.3690   4.4423   4.5074   4.7277
 --------------------------------------------------------------
 
          Ground-State Mulliken Net Atomic Charges

     Atom                 Charge (a.u.)
  ----------------------------------------
      1 C                    -1.074459
      2 C                     0.192614
      3 S                     0.647391
      4 S                     1.415025
      5 O                    -0.696363
      6 O                    -0.687630
      7 N                    -0.786691
      8 H                     0.511651
      9 N                    -0.160067
     10 C                    -0.893100
     11 C                     0.606526
     12 C                     0.061812
     13 C                    -0.058423
     14 C                    -0.705737
     15 H                     0.511817
     16 H                     0.296961
     17 H                     0.270999
     18 H                     0.272144
     19 H                     0.275532
  ----------------------------------------
  Sum of atomic charges =     0.000000

         Merz-Kollman ESP Net Atomic Charges

     Atom                 Charge (a.u.)
  ----------------------------------------
      1 C                     0.051045
      2 C                    -0.075448
      3 S                     0.042391
      4 S                     1.045956
      5 O                    -0.523545
      6 O                    -0.502688
      7 N                    -0.807560
      8 H                     0.405429
      9 N                    -0.588484
     10 C                     0.663791
     11 C                    -0.192254
     12 C                    -0.289868
     13 C                    -0.022021
     14 C                    -0.475365
     15 H                     0.426378
     16 H                     0.238516
     17 H                     0.204618
     18 H                     0.161274
     19 H                     0.237835
  ----------------------------------------
  Sum of atomic charges =     0.000000

  Related Dipole Moment =     8.0774 (X -5.5532 Y  3.2756 Z  4.8659)

 -----------------------------------------------------------------
                    Cartesian Multipole Moments
 -----------------------------------------------------------------
    Charge (ESU x 10^10)
                 0.0000
    Dipole Moment (Debye)
         X      -5.5648      Y       3.2186      Z       4.7289
       Tot       7.9805
    Quadrupole Moments (Debye-Ang)
        XX     -88.7499     XY       4.8599     YY     -83.9557
        XZ      13.3482     YZ       2.8932     ZZ     -91.6828
    Octopole Moments (Debye-Ang^2)
       XXX    -193.8802    XXY     -18.9844    XYY     -55.8967
       YYY    -158.0809    XXZ      57.7024    XYZ      18.7733
       YYZ       0.9074    XZZ     -27.8952    YZZ     -73.3603
       ZZZ      21.5127
    Hexadecapole Moments (Debye-Ang^3)
      XXXX   -3083.8621   XXXY     331.2167   XXYY    -634.9795
      XYYY     273.0298   YYYY   -1079.7900   XXXZ     202.5633
      XXYZ      59.4889   XYYZ      59.1319   YYYZ      12.8997
      XXZZ    -582.5272   XYZZ     117.2777   YYZZ    -263.0191
      XZZZ     150.1215   YZZZ      46.7951   ZZZZ    -263.7422
 -----------------------------------------------------------------
 Total job time:  15.28s(wall), 213.52s(cpu) 
 Thu Jun 23 17:47:06 2022

        *************************************************************
        *                                                           *
        *  Thank you very much for using Q-Chem.  Have a nice day.  *
        *                                                           *
        *************************************************************


