                  Welcome to Q-Chem
     A Quantum Leap Into The Future Of Chemistry


 Q-Chem 5.4 (devel), Q-Chem, Inc., Pleasanton, CA (2021)

 E. Epifanovsky,  A. T. B. Gilbert,  Xintian Feng,  Joonho Lee,  Yuezhi Mao,  
 N. Mardirossian,  P. Pokhilko,  A. White,  M. Wormit,  M. P. Coons,  
 A. L. Dempwolff,  Zhengting Gan,  D. Hait,  P. R. Horn,  L. D. Jacobson,  
 I. Kaliman,  J. Kussmann,  A. W. Lange,  Ka Un Lao,  D. S. Levine,  Jie Liu,  
 S. C. McKenzie,  A. F. Morrison,  K. Nanda,  F. Plasser,  D. R. Rehn,  
 M. L. Vidal,  Zhi-Qiang You,  Ying Zhu,  B. Alam,  B. Albrecht,  
 A. Aldossary,  E. Alguire,  J. H. Andersen,  D. Barton,  K. Begam,  A. Behn,  
 Y. A. Bernard,  E. J. Berquist,  H. Burton,  A. Carreras,  K. Carter-Fenk,  
 R. Chakraborty,  A. D. Chien,  K. D. Closser,  V. Cofer-Shabica,  
 S. Dasgupta,  Jia Deng,  M. de Wergifosse,  M. Diedenhofen,  Hainam Do,  
 S. Ehlert,  Po-Tung Fang,  S. Fatehi,  Qingguo Feng,  T. Friedhoff,  
 J. Gayvert,  Qinghui Ge,  G. Gidofalvi,  M. Goldey,  J. Gomes,  
 C. Gonzalez-Espinoza,  S. Gulania,  A. Gunina,  M. W. D. Hanson-Heine,  
 P. H. P. Harbach,  A. W. Hauser,  M. F. Herbst,  M. Hernandez Vera,  
 M. Hodecker,  Z. C. Holden,  S. Houck,  Xunkun Huang,  Kerwin Hui,  
 B. C. Huynh,  M. Ivanov,  Hyunjun Ji,  Hanjie Jiang,  B. Kaduk,  S. Kaehler,  
 K. Khistyaev,  Jaehoon Kim,  P. Klunzinger,  Z. Koczor-Benda,  
 Joong Hoon Koh,  D. Kosenkov,  L. Koulias,  T. Kowalczyk,  C. M. Krauter,  
 K. Kue,  A. Kunitsa,  T. Kus,  A. Landau,  K. V. Lawler,  D. Lefrancois,  
 S. Lehtola,  Rain Li,  Yi-Pei Li,  Jiashu Liang,  M. Liebenthal,  
 Hung-Hsuan Lin,  You-Sheng Lin,  Fenglai Liu,  Kuan-Yu Liu,  
 M. Loipersberger,  A. Luenser,  A. Manjanath,  P. Manohar,  E. Mansoor,  
 S. F. Manzer,  Shan-Ping Mao,  A. V. Marenich,  T. Markovich,  S. Mason,  
 S. A. Maurer,  P. F. McLaughlin,  M. F. S. J. Menger,  J.-M. Mewes,  
 S. A. Mewes,  P. Morgante,  J. W. Mullinax,  K. J. Oosterbaan,  G. Paran,  
 Alexander C. Paul,  Suranjan K. Paul,  F. Pavosevic,  Zheng Pei,  S. Prager,  
 E. I. Proynov,  E. Ramos,  B. Rana,  A. E. Rask,  A. Rettig,  R. M. Richard,  
 F. Rob,  E. Rossomme,  T. Scheele,  M. Scheurer,  M. Schneider,  
 N. Sergueev,  S. M. Sharada,  W. Skomorowski,  D. W. Small,  C. J. Stein,  
 Yu-Chuan Su,  E. J. Sundstrom,  Zhen Tao,  J. Thirman,  T. Tsuchimochi,  
 N. M. Tubman,  S. P. Veccham,  O. Vydrov,  J. Wenzel,  J. Witte,  A. Yamada,  
 Kun Yao,  S. Yeganeh,  S. R. Yost,  A. Zech,  Igor Ying Zhang,  Xing Zhang,  
 Yu Zhang,  D. Zuev,  A. Aspuru-Guzik,  A. T. Bell,  N. A. Besley,  
 K. B. Bravaya,  B. R. Brooks,  D. Casanova,  Jeng-Da Chai,  S. Coriani,  
 C. J. Cramer,  A. E. DePrince, III,  R. A. DiStasio Jr.,  A. Dreuw,  
 B. D. Dunietz,  T. R. Furlani,  W. A. Goddard III,  S. Grimme,  
 S. Hammes-Schiffer,  T. Head-Gordon,  W. J. Hehre,  Chao-Ping Hsu,  
 T.-C. Jagau,  Yousung Jung,  A. Klamt,  Jing Kong,  D. S. Lambrecht,  
 WanZhen Liang,  N. J. Mayhall,  C. W. McCurdy,  J. B. Neaton,  
 C. Ochsenfeld,  J. A. Parkhill,  R. Peverati,  V. A. Rassolov,  Yihan Shao,  
 L. V. Slipchenko,  T. Stauch,  R. P. Steele,  J. E. Subotnik,  
 A. J. W. Thom,  A. Tkatchenko,  D. G. Truhlar,  T. Van Voorhis,  
 T. A. Wesolowski,  K. B. Whaley,  H. L. Woodcock III,  P. M. Zimmerman,  
 S. Faraji,  P. M. W. Gill,  M. Head-Gordon,  J. M. Herbert,  A. I. Krylov

 Additional authors for Version 5.4.1: 
 S. Kotaru,  Shaozhi Li,  Xiangyuan Li,  F. Matz,  A. Molle,  Haisheng Ren,  
 Yingli Su,  Hung-Yi Tsai,  C. Utku,  Fang Wang

 Contributors to earlier versions of Q-Chem not listed above: 
 R. D. Adamson,  B. Austin,  R. Baer,  J. Baker,  G. J. O. Beran,  
 K. Brandhorst,  S. T. Brown,  E. F. C. Byrd,  A. K. Chakraborty,  
 G. K. L. Chan,  Chun-Min Chang,  Yunqing Chen,  C.-L. Cheng,  
 Siu Hung Chien,  D. M. Chipman,  D. L. Crittenden,  H. Dachsel,  
 R. J. Doerksen,  A. D. Dutoi,  R. G. Edgar,  J. Fosso-Tande,  
 L. Fusti-Molnar,  D. Ghosh,  A. Ghysels,  A. Golubeva-Zadorozhnaya,  
 J. Gonthier,  M. S. Gordon,  S. R. Gwaltney,  G. Hawkins,  J. E. Herr,  
 A. Heyden,  S. Hirata,  E. G. Hohenstein,  G. Kedziora,  F. J. Keil,  
 C. Kelley,  Jihan Kim,  R. A. King,  R. Z. Khaliullin,  P. P. Korambath,  
 W. Kurlancheek,  A. Laurent,  A. M. Lee,  M. S. Lee,  S. V. Levchenko,  
 Ching Yeh Lin,  D. Liotard,  E. Livshits,  R. C. Lochan,  I. Lotan,  
 L. A. Martinez-Martinez,  P. E. Maslen,  N. Nair,  D. P. O'Neill,  
 D. Neuhauser,  E. Neuscamman,  C. M. Oana,  R. Olivares-Amaya,  R. Olson,  
 T. M. Perrine,  B. Peters,  P. A. Pieniazek,  A. Prociuk,  Y. M. Rhee,  
 J. Ritchie,  M. A. Rohrdanz,  E. Rosta,  N. J. Russ,  H. F. Schaefer III,  
 M. W. Schmidt,  N. E. Schultz,  S. Sharma,  N. Shenvi,  C. D. Sherrill,  
 A. C. Simmonett,  A. Sodt,  T. Stein,  D. Stuck,  K. S. Thanthiriwatte,  
 V. Vanovschi,  L. Vogt,  Tao Wang,  A. Warshel,  M. A. Watson,  
 C. F. Williams,  Q. Wu,  X. Xu,  Jun Yang,  W. Zhang,  Yan Zhao

 Please cite Q-Chem as follows:
 Y. Shao et al., Mol. Phys. 113, 184-215 (2015)
 DOI: 10.1080/00268976.2014.952696

 Q-Chem 5.4.1 for Intel X86 EM64T Linux

 Parts of Q-Chem use Armadillo 9.800.1 (Horizon Scraper).
 http://arma.sourceforge.net/

 Q-Chem begins on Thu May 26 10:29:08 2022  

 Host: gadi-cpu-clx-2115.gadi.nci.org.au
0

     Scratch files written to /jobfs/41312704.gadi-pbs/qchem3067772//
 Processing $rem in /apps/qchem/5.4.1/config/preferences:
 Processing $rem in /home/561/yj5695/.qchemrc:
 Symmetry turned off for PCM/SM12/SMD calculation
 Method-specific promolecule density matrix will be built for SM12 calculation

 Checking the input file for inconsistencies... 	...done.

--------------------------------------------------------------
User input:
--------------------------------------------------------------
$molecule
0  1
C -1.4735701368  0.5717169889 -0.9135076183
C -2.5736721445  0.2740072665 -1.7145008455
H -3.4914125955 -0.111443358 -1.2814467163
C -2.4793304535  0.4692386434 -3.0888041247
H -3.3194701269  0.2393736105 -3.735324935
C -1.2883981502  0.9588715841 -3.619575349
Cl -1.1689424077  1.2008290691 -5.3423472929
C -0.189001501  1.2593131909 -2.819039691
H  0.7284822507  1.6357710333 -3.2585454127
C -0.2836485149  1.0639318537 -1.4447890772
H  0.5634988219  1.2873082137 -0.8038334725
S -1.6117587933  0.3710916587  0.8477593085
O -2.6411889425 -0.6345868875  1.1075705699
O -0.2652791963  0.1855203381  1.3873783848
N -2.1747834476  1.7809974788  1.4966800663
H -3.1076819384  2.011851894  1.1480988125
H -1.5292077235  2.5567354218  1.3336573931
$end

$rem
jobtype sp
exchange M062X
basis 6-31+G*
SMX_GAS_PHASE = TRUE
solvent_method sm12
$end

$smx
solvent water
charges mk
$end
--------------------------------------------------------------
 ----------------------------------------------------------------
             Standard Nuclear Orientation (Angstroms)
    I     Atom           X                Y                Z
 ----------------------------------------------------------------
    1      C      -1.4735701368     0.5717169889    -0.9135076183
    2      C      -2.5736721445     0.2740072665    -1.7145008455
    3      H      -3.4914125955    -0.1114433580    -1.2814467163
    4      C      -2.4793304535     0.4692386434    -3.0888041247
    5      H      -3.3194701269     0.2393736105    -3.7353249350
    6      C      -1.2883981502     0.9588715841    -3.6195753490
    7      Cl     -1.1689424077     1.2008290691    -5.3423472929
    8      C      -0.1890015010     1.2593131909    -2.8190396910
    9      H       0.7284822507     1.6357710333    -3.2585454127
   10      C      -0.2836485149     1.0639318537    -1.4447890772
   11      H       0.5634988219     1.2873082137    -0.8038334725
   12      S      -1.6117587933     0.3710916587     0.8477593085
   13      O      -2.6411889425    -0.6345868875     1.1075705699
   14      O      -0.2652791963     0.1855203381     1.3873783848
   15      N      -2.1747834476     1.7809974788     1.4966800663
   16      H      -3.1076819384     2.0118518940     1.1480988125
   17      H      -1.5292077235     2.5567354218     1.3336573931
 ----------------------------------------------------------------
 Nuclear Repulsion Energy =         796.08334125 hartrees
 There are       49 alpha and       49 beta electrons
 Requested basis set is 6-31+G(d)
 There are 69 shells and 229 basis functions

 Total QAlloc Memory Limit   2000 MB
 Mega-Array Size       188 MB
 MEM_STATIC part       192 MB
 A cutoff of  1.0D-08 yielded   1983 shell pairs
 There are     22837 function pairs
 Smallest overlap matrix eigenvalue = 1.79E-06

 Q-Chem warning in module stvman/mkSTV.C, line 323:

 Overlap eigenvalue is smaller than square root of threshold
 Use THRESH >= 12 to get rid of this warning


 Scale SEOQF with 1.000000e-01/1.000000e-01/1.000000e-02

 Standard Electronic Orientation quadrupole field applied
 Nucleus-field energy     =     0.0000000086 hartrees
 ================ Generating on-the-fly Promolecule Density  ================
Attempting to make child job directory: /jobfs/41312704.gadi-pbs/qchem3067772//Frg1/
Attempting to make child job directory: /jobfs/41312704.gadi-pbs/qchem3067772//Frg2/
Attempting to make child job directory: /jobfs/41312704.gadi-pbs/qchem3067772//Frg3/
Attempting to make child job directory: /jobfs/41312704.gadi-pbs/qchem3067772//Frg4/
Attempting to make child job directory: /jobfs/41312704.gadi-pbs/qchem3067772//Frg5/
Attempting to make child job directory: /jobfs/41312704.gadi-pbs/qchem3067772//Frg6/
Creating input file /jobfs/41312704.gadi-pbs/qchem3067772/Frg1.input
using default PutDataFrgm: nothing
calling putenv with: QCSCRATCH=/jobfs/41312704.gadi-pbs/qchem3067772/ 
Spawning Job For Fragment 0
Done Job For Fragment 0
calling putenv with: QCSCRATCH=/jobfs/41312704.gadi-pbs 
calling putenv with: QCTHREADS=16 
Creating input file /jobfs/41312704.gadi-pbs/qchem3067772/Frg2.input
using default PutDataFrgm: nothing
calling putenv with: QCSCRATCH=/jobfs/41312704.gadi-pbs/qchem3067772/ 
Spawning Job For Fragment 1
Done Job For Fragment 1
calling putenv with: QCSCRATCH=/jobfs/41312704.gadi-pbs 
calling putenv with: QCTHREADS=16 
Creating input file /jobfs/41312704.gadi-pbs/qchem3067772/Frg3.input
using default PutDataFrgm: nothing
calling putenv with: QCSCRATCH=/jobfs/41312704.gadi-pbs/qchem3067772/ 
Spawning Job For Fragment 2
Done Job For Fragment 2
calling putenv with: QCSCRATCH=/jobfs/41312704.gadi-pbs 
calling putenv with: QCTHREADS=16 
Creating input file /jobfs/41312704.gadi-pbs/qchem3067772/Frg4.input
using default PutDataFrgm: nothing
calling putenv with: QCSCRATCH=/jobfs/41312704.gadi-pbs/qchem3067772/ 
Spawning Job For Fragment 3
Done Job For Fragment 3
calling putenv with: QCSCRATCH=/jobfs/41312704.gadi-pbs 
calling putenv with: QCTHREADS=16 
Creating input file /jobfs/41312704.gadi-pbs/qchem3067772/Frg5.input
using default PutDataFrgm: nothing
calling putenv with: QCSCRATCH=/jobfs/41312704.gadi-pbs/qchem3067772/ 
Spawning Job For Fragment 4
Done Job For Fragment 4
calling putenv with: QCSCRATCH=/jobfs/41312704.gadi-pbs 
calling putenv with: QCTHREADS=16 
Creating input file /jobfs/41312704.gadi-pbs/qchem3067772/Frg6.input
using default PutDataFrgm: nothing
calling putenv with: QCSCRATCH=/jobfs/41312704.gadi-pbs/qchem3067772/ 
Spawning Job For Fragment 5
Done Job For Fragment 5
calling putenv with: QCSCRATCH=/jobfs/41312704.gadi-pbs 
calling putenv with: QCTHREADS=16 
 Time for running child jobs:  CPU 2.59 s  wall 2.54 s
 ============= Method Specific Promolecule Density Constructed =============
 Guess from superposition of atomic densities
 Warning:  Energy on first SCF cycle will be non-variational
 SAD guess density has 98.000000 electrons

 -----------------------------------------------------------------------
  General SCF calculation program by
  Eric Jon Sundstrom, Paul Horn, Yuezhi Mao, Dmitri Zuev, Alec White,
  David Stuck, Shaama M.S., Shane Yost, Joonho Lee, David Small,
  Daniel Levine, Susi Lehtola, Hugh Burton, Evgeny Epifanovsky,
  Bang C. Huynh
 -----------------------------------------------------------------------
 Exchange:     0.5400 Hartree-Fock + 1.0000 M06-2X
 Correlation:  1.0000 M06-2X
 Using SG-3 standard quadrature grid
 using 16 threads for integral computing
 -------------------------------------------------------
 OpenMP Integral computing Module                
 Release: version 1.0, May 2013, Q-Chem Inc. Pittsburgh 
 -------------------------------------------------------
 A restricted SCF calculation will be
 performed using DIIS
 SCF converges when DIIS error is below 1.0e-05
 ---------------------------------------
  Cycle       Energy         DIIS error
 ---------------------------------------
    1   -1298.9626622560      5.00e-02  
    2   -1295.2918917823      6.44e-03  
    3   -1295.1265373851      9.01e-03  
    4   -1295.5168637912      9.55e-04  
    5   -1295.5211908423      4.29e-04  
    6   -1295.5222931601      1.05e-04  
    7   -1295.5223638913      3.30e-05  
    8   -1295.5223714617      7.20e-06  Convergence criterion met
 ---------------------------------------
 SCF time:   CPU 71.43s  wall 4.00s 
 SCF   energy in the final basis set =    -1295.5223714617
 Total energy in the final basis set =    -1295.5223714617
 Exchange:     0.5400 Hartree-Fock + 1.0000 M06-2X
 Correlation:  1.0000 M06-2X
 Using SG-3 standard quadrature grid
 
 SM12 calculation using Merz-Singh-Kollman charges
 Citation of the SM12 model:
 Marenich, A.V.; Cramer, C.J.; Truhlar, D.G.
 J. Chem. Theory Comput. 2013, 9, 609-612.
 iSolventCode=           1
 Solvent: water                                                           
 
  Building new vdw surfaces
         Merz-Kollman ESP Net Atomic Charges

     Atom                 Charge (a.u.)
  ----------------------------------------
      1 C                    -0.054844
      2 C                    -0.204457
      3 H                     0.175919
      4 C                     0.011159
      5 H                     0.134138
      6 C                    -0.090820
      7 Cl                   -0.066696
      8 C                     0.025665
      9 H                     0.129957
     10 C                    -0.215866
     11 H                     0.178656
     12 S                     1.023813
     13 O                    -0.495802
     14 O                    -0.496086
     15 N                    -0.792427
     16 H                     0.368327
     17 H                     0.369362
  ----------------------------------------
  Sum of atomic charges =     0.000000

  Related Dipole Moment =     5.3673 (X -1.0979 Y  4.2508 Z -3.0875)


 Charges (in A.U.) from Merz-Kollman fitting 
 -----------------------------------------------
 Center     Atomic                  MZ       
 Number     Number                  Charge
 -----------------------------------------------
    1          6                   -0.054844
    2          6                   -0.204457
    3          1                    0.175919
    4          6                    0.011159
    5          1                    0.134138
    6          6                   -0.090820
    7         17                   -0.066696
    8          6                    0.025665
    9          1                    0.129957
   10          6                   -0.215866
   11          1                    0.178656
   12         16                    1.023813
   13          8                   -0.495802
   14          8                   -0.496086
   15          7                   -0.792427
   16          1                    0.368327
   17          1                    0.369362
 -----------------------------------------------
 A restricted SCF calculation will be
 performed using Roothaan-Hall, DIIS
 SCF converges when DIIS error is below 1.0e-05
 ---------------------------------------
  Cycle       Energy         DIIS error
 ---------------------------------------
         Merz-Kollman ESP Net Atomic Charges

     Atom                 Charge (a.u.)
  ----------------------------------------
      1 C                    -0.041801
      2 C                    -0.215788
      3 H                     0.185131
      4 C                     0.017388
      5 H                     0.147395
      6 C                    -0.095718
      7 Cl                   -0.082259
      8 C                     0.033430
      9 H                     0.143000
     10 C                    -0.228341
     11 H                     0.188053
     12 S                     1.070928
     13 O                    -0.554010
     14 O                    -0.554466
     15 N                    -0.787051
     16 H                     0.386568
     17 H                     0.387542
  ----------------------------------------
  Sum of atomic charges =     0.000000

  Related Dipole Moment =     6.2071 (X -1.3053 Y  4.9825 Z -3.4640)


 Charges (in A.U.) from Merz-Kollman fitting 
 -----------------------------------------------
 Center     Atomic                  MZ       
 Number     Number                  Charge
 -----------------------------------------------
    1          6                   -0.041801
    2          6                   -0.215788
    3          1                    0.185131
    4          6                    0.017388
    5          1                    0.147395
    6          6                   -0.095718
    7         17                   -0.082259
    8          6                    0.033430
    9          1                    0.143000
   10          6                   -0.228341
   11          1                    0.188053
   12         16                    1.070928
   13          8                   -0.554010
   14          8                   -0.554466
   15          7                   -0.787051
   16          1                    0.386568
   17          1                    0.387542
 -----------------------------------------------
    1   -1295.5223711885      4.79e-04  Roothaan Step
 ---------------------------------------
  Cycle       Energy         DIIS error
 ---------------------------------------
         Merz-Kollman ESP Net Atomic Charges

     Atom                 Charge (a.u.)
  ----------------------------------------
      1 C                    -0.038242
      2 C                    -0.219383
      3 H                     0.185803
      4 C                     0.007701
      5 H                     0.153177
      6 C                    -0.086834
      7 Cl                   -0.080298
      8 C                     0.027370
      9 H                     0.147519
     10 C                    -0.234008
     11 H                     0.189055
     12 S                     1.021784
     13 O                    -0.526478
     14 O                    -0.526767
     15 N                    -0.789022
     16 H                     0.383764
     17 H                     0.384860
  ----------------------------------------
  Sum of atomic charges =     0.000000

  Related Dipole Moment =     6.0411 (X -1.2304 Y  4.7765 Z -3.4880)


 Charges (in A.U.) from Merz-Kollman fitting 
 -----------------------------------------------
 Center     Atomic                  MZ       
 Number     Number                  Charge
 -----------------------------------------------
    1          6                   -0.038242
    2          6                   -0.219383
    3          1                    0.185803
    4          6                    0.007701
    5          1                    0.153177
    6          6                   -0.086834
    7         17                   -0.080298
    8          6                    0.027370
    9          1                    0.147519
   10          6                   -0.234008
   11          1                    0.189055
   12         16                    1.021784
   13          8                   -0.526478
   14          8                   -0.526767
   15          7                   -0.789022
   16          1                    0.383764
   17          1                    0.384860
 -----------------------------------------------
    1   -1295.5180119842      3.52e-04  
         Merz-Kollman ESP Net Atomic Charges

     Atom                 Charge (a.u.)
  ----------------------------------------
      1 C                    -0.035036
      2 C                    -0.218669
      3 H                     0.185746
      4 C                     0.010241
      5 H                     0.152136
      6 C                    -0.092533
      7 Cl                   -0.081376
      8 C                     0.029050
      9 H                     0.146839
     10 C                    -0.232897
     11 H                     0.188980
     12 S                     1.064662
     13 O                    -0.549973
     14 O                    -0.550385
     15 N                    -0.787342
     16 H                     0.384737
     17 H                     0.385821
  ----------------------------------------
  Sum of atomic charges =     0.000000

  Related Dipole Moment =     6.1833 (X -1.2818 Y  4.9310 Z -3.5036)


 Charges (in A.U.) from Merz-Kollman fitting 
 -----------------------------------------------
 Center     Atomic                  MZ       
 Number     Number                  Charge
 -----------------------------------------------
    1          6                   -0.035036
    2          6                   -0.218669
    3          1                    0.185746
    4          6                    0.010241
    5          1                    0.152136
    6          6                   -0.092533
    7         17                   -0.081376
    8          6                    0.029050
    9          1                    0.146839
   10          6                   -0.232897
   11          1                    0.188980
   12         16                    1.064662
   13          8                   -0.549973
   14          8                   -0.550385
   15          7                   -0.787342
   16          1                    0.384737
   17          1                    0.385821
 -----------------------------------------------
    2   -1295.5187650796      4.45e-04  
         Merz-Kollman ESP Net Atomic Charges

     Atom                 Charge (a.u.)
  ----------------------------------------
      1 C                    -0.038733
      2 C                    -0.218002
      3 H                     0.185837
      4 C                     0.011511
      5 H                     0.152386
      6 C                    -0.090915
      7 Cl                   -0.082582
      8 C                     0.030236
      9 H                     0.147130
     10 C                    -0.232149
     11 H                     0.189039
     12 S                     1.057353
     13 O                    -0.547998
     14 O                    -0.548399
     15 N                    -0.786471
     16 H                     0.385341
     17 H                     0.386416
  ----------------------------------------
  Sum of atomic charges =     0.000000

  Related Dipole Moment =     6.2088 (X -1.2822 Y  4.9423 Z -3.5326)


 Charges (in A.U.) from Merz-Kollman fitting 
 -----------------------------------------------
 Center     Atomic                  MZ       
 Number     Number                  Charge
 -----------------------------------------------
    1          6                   -0.038733
    2          6                   -0.218002
    3          1                    0.185837
    4          6                    0.011511
    5          1                    0.152386
    6          6                   -0.090915
    7         17                   -0.082582
    8          6                    0.030236
    9          1                    0.147130
   10          6                   -0.232149
   11          1                    0.189039
   12         16                    1.057353
   13          8                   -0.547998
   14          8                   -0.548399
   15          7                   -0.786471
   16          1                    0.385341
   17          1                    0.386416
 -----------------------------------------------
    3   -1295.5184507540      3.74e-05  
         Merz-Kollman ESP Net Atomic Charges

     Atom                 Charge (a.u.)
  ----------------------------------------
      1 C                    -0.036025
      2 C                    -0.218580
      3 H                     0.185943
      4 C                     0.010618
      5 H                     0.152834
      6 C                    -0.092023
      7 Cl                   -0.082054
      8 C                     0.029496
      9 H                     0.147527
     10 C                    -0.232822
     11 H                     0.189166
     12 S                     1.059667
     13 O                    -0.548971
     14 O                    -0.549377
     15 N                    -0.787083
     16 H                     0.385303
     17 H                     0.386382
  ----------------------------------------
  Sum of atomic charges =     0.000000

  Related Dipole Moment =     6.2059 (X -1.2824 Y  4.9415 Z -3.5285)


 Charges (in A.U.) from Merz-Kollman fitting 
 -----------------------------------------------
 Center     Atomic                  MZ       
 Number     Number                  Charge
 -----------------------------------------------
    1          6                   -0.036025
    2          6                   -0.218580
    3          1                    0.185943
    4          6                    0.010618
    5          1                    0.152834
    6          6                   -0.092023
    7         17                   -0.082054
    8          6                    0.029496
    9          1                    0.147527
   10          6                   -0.232822
   11          1                    0.189166
   12         16                    1.059667
   13          8                   -0.548971
   14          8                   -0.549377
   15          7                   -0.787083
   16          1                    0.385303
   17          1                    0.386382
 -----------------------------------------------
    4   -1295.5183482565      1.92e-05  
    5   -1295.5183144308      4.47e-06  Convergence criterion met
 ---------------------------------------
 SCF time:   CPU 70.54s  wall 5.00s 
(0)  E-EN(g) gas-phase elect-nuc energy                -1295.522371462 a.u.
(1)  E-EN(liq) elect-nuc energy of solute              -1295.518314431 a.u.
(2)  G-P(liq) polarization free energy of solvation           -17.5484 kcal/mol
(3)  G-ENP(liq) elect-nuc-pol free energy of system    -1295.546279548 a.u.
(4)  G-CDS(liq) cavity-dispersion-solvent structure 
     free energy                                                2.2200 kcal/mol
(5)  G-P-CDS(liq) = G-P(liq) + G-CDS(liq) = (2) + (4)         -15.3284 kcal/mol
(6)  G-S(liq) free energy of system = (1) + (5)        -1295.542741822 a.u.
(7)  DeltaE-EN(liq) elect-nuc reorganization
     energy of solute molecule (7) = (1) - (0)                  2.5458 kcal/mol
(8)  DeltaG-ENP(liq) elect-nuc-pol free energy
     of solvation (8) = (3) - (0)                             -15.0026 kcal/mol
(9)  DeltaG-S(liq) free energy of  solvation
     (9) = (6) - (0)                                          -12.7826 kcal/mol
 SCF   energy in the final basis set =    -1295.5427418220
 Total energy in the final basis set =    -1295.5427418220
 
 --------------------------------------------------------------
 
                    Orbital Energies (a.u.)
 --------------------------------------------------------------
 
 Alpha MOs
 -- Occupied --
******** -90.1767 -19.6594 -19.6594 -14.8065 -10.6415 -10.6093 -10.5932
-10.5931 -10.5876 -10.5876  -9.8335  -8.4906  -7.5576  -7.5513  -7.5511
 -6.4128  -6.4125  -6.4115  -1.2603  -1.1468  -1.0360  -1.0210  -0.9660
 -0.8824  -0.8704  -0.7662  -0.7309  -0.6961  -0.6511  -0.6181  -0.6010
 -0.5702  -0.5679  -0.5438  -0.5355  -0.5235  -0.4933  -0.4688  -0.4467
 -0.4366  -0.4344  -0.4221  -0.4032  -0.3982  -0.3931  -0.3833  -0.3401
 -0.3220
 -- Virtual --
 -0.0268  -0.0100  -0.0032   0.0220   0.0316   0.0320   0.0504   0.0528
  0.0585   0.0642   0.0710   0.0826   0.0856   0.0894   0.0909   0.1001
  0.1054   0.1132   0.1168   0.1262   0.1298   0.1344   0.1424   0.1493
  0.1516   0.1533   0.1621   0.1670   0.1730   0.1782   0.1865   0.1933
  0.2081   0.2120   0.2151   0.2236   0.2258   0.2304   0.2354   0.2440
  0.2461   0.2541   0.2557   0.2727   0.2738   0.2809   0.2911   0.2949
  0.3093   0.3122   0.3190   0.3213   0.3248   0.3364   0.3574   0.3595
  0.3670   0.3877   0.3895   0.3930   0.4416   0.4644   0.5317   0.5464
  0.5618   0.5877   0.5970   0.6420   0.6501   0.6712   0.6861   0.6923
  0.6940   0.7052   0.7220   0.7370   0.7448   0.7515   0.7546   0.7866
  0.8008   0.8123   0.8246   0.8632   0.8780   0.9251   0.9337   0.9511
  0.9532   0.9730   0.9877   0.9931   0.9941   1.0096   1.0296   1.0379
  1.0439   1.0682   1.0919   1.1090   1.1162   1.1265   1.1403   1.1474
  1.1662   1.1708   1.2011   1.2210   1.2515   1.2687   1.3161   1.3168
  1.3445   1.3593   1.3651   1.3881   1.3950   1.4000   1.4108   1.4307
  1.4853   1.4861   1.4885   1.5235   1.5462   1.5827   1.6087   1.6874
  1.7033   1.7970   1.7985   1.8180   1.8184   1.8538   1.8629   1.8967
  1.9024   1.9377   1.9887   2.0062   2.0299   2.0462   2.1136   2.1199
  2.1441   2.1585   2.1674   2.1682   2.1878   2.1971   2.2326   2.2955
  2.3001   2.3205   2.3467   2.4450   2.4916   2.5551   2.6338   2.6641
  2.6660   2.7362   2.7640   2.7652   2.8480   2.8996   2.9313   3.0351
  3.3411   3.8819   4.0720   4.1966   4.2455   4.2566   4.2684   4.3054
  4.3769   4.3972   4.4590   4.6817
 --------------------------------------------------------------
 
          Ground-State Mulliken Net Atomic Charges

     Atom                 Charge (a.u.)
  ----------------------------------------
      1 C                    -1.465903
      2 C                     0.207438
      3 H                     0.293124
      4 C                    -0.057639
      5 H                     0.288249
      6 C                    -0.006718
      7 Cl                    0.157323
      8 C                    -0.038882
      9 H                     0.288168
     10 C                     0.206822
     11 H                     0.293256
     12 S                     1.143680
     13 O                    -0.750772
     14 O                    -0.750843
     15 N                    -0.820060
     16 H                     0.506253
     17 H                     0.506504
  ----------------------------------------
  Sum of atomic charges =     0.000000

         Merz-Kollman ESP Net Atomic Charges

     Atom                 Charge (a.u.)
  ----------------------------------------
      1 C                    -0.036845
      2 C                    -0.218433
      3 H                     0.185915
      4 C                     0.010567
      5 H                     0.152838
      6 C                    -0.091401
      7 Cl                   -0.082237
      8 C                     0.029470
      9 H                     0.147525
     10 C                    -0.232690
     11 H                     0.189142
     12 S                     1.060194
     13 O                    -0.549119
     14 O                    -0.549525
     15 N                    -0.786899
     16 H                     0.385209
     17 H                     0.386290
  ----------------------------------------
  Sum of atomic charges =     0.000000

  Related Dipole Moment =     6.2081 (X -1.2823 Y  4.9423 Z -3.5312)

 -----------------------------------------------------------------
                    Cartesian Multipole Moments
 -----------------------------------------------------------------
    Charge (ESU x 10^10)
                -0.0000
    Dipole Moment (Debye)
         X      -1.2427      Y       4.8363      Z      -3.6040
       Tot       6.1582
    Quadrupole Moments (Debye-Ang)
        XX     -69.3223     XY      -7.8722     YY     -71.3202
        XZ       5.0076     YZ       4.6114     ZZ     -86.9716
    Octopole Moments (Debye-Ang^2)
       XXX     307.9876    XXY     -28.7483    XYY     106.3725
       YYY    -148.1249    XXZ      80.7747    XYZ     -18.3696
       YYZ     125.0106    XZZ     120.8566    YZZ     -62.6113
       ZZZ     345.8095
    Hexadecapole Moments (Debye-Ang^3)
      XXXX   -1300.0300   XXXY     118.2371   XXYY    -298.4695
      XYYY     163.0550   YYYY    -463.0186   XXXZ    -292.6454
      XXYZ     161.7329   XYYZ    -167.2336   YYYZ     418.8516
      XXZZ    -832.1636   XYZZ      95.9033   YYZZ    -738.0612
      XZZZ    -383.5600   YZZZ     399.7852   ZZZZ   -3943.5214
 -----------------------------------------------------------------
 Total job time:  11.90s(wall), 149.95s(cpu) 
 Thu May 26 10:29:20 2022

        *************************************************************
        *                                                           *
        *  Thank you very much for using Q-Chem.  Have a nice day.  *
        *                                                           *
        *************************************************************


