                  Welcome to Q-Chem
     A Quantum Leap Into The Future Of Chemistry


 Q-Chem 5.4 (devel), Q-Chem, Inc., Pleasanton, CA (2021)

 E. Epifanovsky,  A. T. B. Gilbert,  Xintian Feng,  Joonho Lee,  Yuezhi Mao,  
 N. Mardirossian,  P. Pokhilko,  A. White,  M. Wormit,  M. P. Coons,  
 A. L. Dempwolff,  Zhengting Gan,  D. Hait,  P. R. Horn,  L. D. Jacobson,  
 I. Kaliman,  J. Kussmann,  A. W. Lange,  Ka Un Lao,  D. S. Levine,  Jie Liu,  
 S. C. McKenzie,  A. F. Morrison,  K. Nanda,  F. Plasser,  D. R. Rehn,  
 M. L. Vidal,  Zhi-Qiang You,  Ying Zhu,  B. Alam,  B. Albrecht,  
 A. Aldossary,  E. Alguire,  J. H. Andersen,  D. Barton,  K. Begam,  A. Behn,  
 Y. A. Bernard,  E. J. Berquist,  H. Burton,  A. Carreras,  K. Carter-Fenk,  
 R. Chakraborty,  A. D. Chien,  K. D. Closser,  V. Cofer-Shabica,  
 S. Dasgupta,  Jia Deng,  M. de Wergifosse,  M. Diedenhofen,  Hainam Do,  
 S. Ehlert,  Po-Tung Fang,  S. Fatehi,  Qingguo Feng,  T. Friedhoff,  
 J. Gayvert,  Qinghui Ge,  G. Gidofalvi,  M. Goldey,  J. Gomes,  
 C. Gonzalez-Espinoza,  S. Gulania,  A. Gunina,  M. W. D. Hanson-Heine,  
 P. H. P. Harbach,  A. W. Hauser,  M. F. Herbst,  M. Hernandez Vera,  
 M. Hodecker,  Z. C. Holden,  S. Houck,  Xunkun Huang,  Kerwin Hui,  
 B. C. Huynh,  M. Ivanov,  Hyunjun Ji,  Hanjie Jiang,  B. Kaduk,  S. Kaehler,  
 K. Khistyaev,  Jaehoon Kim,  P. Klunzinger,  Z. Koczor-Benda,  
 Joong Hoon Koh,  D. Kosenkov,  L. Koulias,  T. Kowalczyk,  C. M. Krauter,  
 K. Kue,  A. Kunitsa,  T. Kus,  A. Landau,  K. V. Lawler,  D. Lefrancois,  
 S. Lehtola,  Rain Li,  Yi-Pei Li,  Jiashu Liang,  M. Liebenthal,  
 Hung-Hsuan Lin,  You-Sheng Lin,  Fenglai Liu,  Kuan-Yu Liu,  
 M. Loipersberger,  A. Luenser,  A. Manjanath,  P. Manohar,  E. Mansoor,  
 S. F. Manzer,  Shan-Ping Mao,  A. V. Marenich,  T. Markovich,  S. Mason,  
 S. A. Maurer,  P. F. McLaughlin,  M. F. S. J. Menger,  J.-M. Mewes,  
 S. A. Mewes,  P. Morgante,  J. W. Mullinax,  K. J. Oosterbaan,  G. Paran,  
 Alexander C. Paul,  Suranjan K. Paul,  F. Pavosevic,  Zheng Pei,  S. Prager,  
 E. I. Proynov,  E. Ramos,  B. Rana,  A. E. Rask,  A. Rettig,  R. M. Richard,  
 F. Rob,  E. Rossomme,  T. Scheele,  M. Scheurer,  M. Schneider,  
 N. Sergueev,  S. M. Sharada,  W. Skomorowski,  D. W. Small,  C. J. Stein,  
 Yu-Chuan Su,  E. J. Sundstrom,  Zhen Tao,  J. Thirman,  T. Tsuchimochi,  
 N. M. Tubman,  S. P. Veccham,  O. Vydrov,  J. Wenzel,  J. Witte,  A. Yamada,  
 Kun Yao,  S. Yeganeh,  S. R. Yost,  A. Zech,  Igor Ying Zhang,  Xing Zhang,  
 Yu Zhang,  D. Zuev,  A. Aspuru-Guzik,  A. T. Bell,  N. A. Besley,  
 K. B. Bravaya,  B. R. Brooks,  D. Casanova,  Jeng-Da Chai,  S. Coriani,  
 C. J. Cramer,  A. E. DePrince, III,  R. A. DiStasio Jr.,  A. Dreuw,  
 B. D. Dunietz,  T. R. Furlani,  W. A. Goddard III,  S. Grimme,  
 S. Hammes-Schiffer,  T. Head-Gordon,  W. J. Hehre,  Chao-Ping Hsu,  
 T.-C. Jagau,  Yousung Jung,  A. Klamt,  Jing Kong,  D. S. Lambrecht,  
 WanZhen Liang,  N. J. Mayhall,  C. W. McCurdy,  J. B. Neaton,  
 C. Ochsenfeld,  J. A. Parkhill,  R. Peverati,  V. A. Rassolov,  Yihan Shao,  
 L. V. Slipchenko,  T. Stauch,  R. P. Steele,  J. E. Subotnik,  
 A. J. W. Thom,  A. Tkatchenko,  D. G. Truhlar,  T. Van Voorhis,  
 T. A. Wesolowski,  K. B. Whaley,  H. L. Woodcock III,  P. M. Zimmerman,  
 S. Faraji,  P. M. W. Gill,  M. Head-Gordon,  J. M. Herbert,  A. I. Krylov

 Additional authors for Version 5.4.1: 
 S. Kotaru,  Shaozhi Li,  Xiangyuan Li,  F. Matz,  A. Molle,  Haisheng Ren,  
 Yingli Su,  Hung-Yi Tsai,  C. Utku,  Fang Wang

 Contributors to earlier versions of Q-Chem not listed above: 
 R. D. Adamson,  B. Austin,  R. Baer,  J. Baker,  G. J. O. Beran,  
 K. Brandhorst,  S. T. Brown,  E. F. C. Byrd,  A. K. Chakraborty,  
 G. K. L. Chan,  Chun-Min Chang,  Yunqing Chen,  C.-L. Cheng,  
 Siu Hung Chien,  D. M. Chipman,  D. L. Crittenden,  H. Dachsel,  
 R. J. Doerksen,  A. D. Dutoi,  R. G. Edgar,  J. Fosso-Tande,  
 L. Fusti-Molnar,  D. Ghosh,  A. Ghysels,  A. Golubeva-Zadorozhnaya,  
 J. Gonthier,  M. S. Gordon,  S. R. Gwaltney,  G. Hawkins,  J. E. Herr,  
 A. Heyden,  S. Hirata,  E. G. Hohenstein,  G. Kedziora,  F. J. Keil,  
 C. Kelley,  Jihan Kim,  R. A. King,  R. Z. Khaliullin,  P. P. Korambath,  
 W. Kurlancheek,  A. Laurent,  A. M. Lee,  M. S. Lee,  S. V. Levchenko,  
 Ching Yeh Lin,  D. Liotard,  E. Livshits,  R. C. Lochan,  I. Lotan,  
 L. A. Martinez-Martinez,  P. E. Maslen,  N. Nair,  D. P. O'Neill,  
 D. Neuhauser,  E. Neuscamman,  C. M. Oana,  R. Olivares-Amaya,  R. Olson,  
 T. M. Perrine,  B. Peters,  P. A. Pieniazek,  A. Prociuk,  Y. M. Rhee,  
 J. Ritchie,  M. A. Rohrdanz,  E. Rosta,  N. J. Russ,  H. F. Schaefer III,  
 M. W. Schmidt,  N. E. Schultz,  S. Sharma,  N. Shenvi,  C. D. Sherrill,  
 A. C. Simmonett,  A. Sodt,  T. Stein,  D. Stuck,  K. S. Thanthiriwatte,  
 V. Vanovschi,  L. Vogt,  Tao Wang,  A. Warshel,  M. A. Watson,  
 C. F. Williams,  Q. Wu,  X. Xu,  Jun Yang,  W. Zhang,  Yan Zhao

 Please cite Q-Chem as follows:
 Y. Shao et al., Mol. Phys. 113, 184-215 (2015)
 DOI: 10.1080/00268976.2014.952696

 Q-Chem 5.4.1 for Intel X86 EM64T Linux

 Parts of Q-Chem use Armadillo 9.800.1 (Horizon Scraper).
 http://arma.sourceforge.net/

 Q-Chem begins on Wed May 25 16:17:32 2022  

 Host: gadi-cpu-clx-2912.gadi.nci.org.au
0

     Scratch files written to /jobfs/41235931.gadi-pbs/qchem547393//
 Processing $rem in /apps/qchem/5.4.1/config/preferences:
 Processing $rem in /home/561/yj5695/.qchemrc:
 Symmetry turned off for PCM/SM12/SMD calculation
 Method-specific promolecule density matrix will be built for SM12 calculation

 Checking the input file for inconsistencies... 	...done.

--------------------------------------------------------------
User input:
--------------------------------------------------------------
$molecule
0  1
C -1.1007988041  0.7586913664 -1.4394421396
S -1.3490265652  0.6247942887  0.3237236817
O -0.0409381537  0.8787356285  0.9180939636
O -2.4986083108  1.447668072  0.6742132126
N -1.7477561422 -0.9251651594  0.6686228609
H -1.0100081637 -1.587479504  0.419735804
H -2.6490576178 -1.1971081249  0.2707013354
N -2.0832663917  0.6994869389 -2.266230658
C -1.6051905311  0.7891014257 -3.5622569655
C -0.2078367785  0.9145687867 -3.6731455482
S  0.5084673562  0.9203353183 -2.0865486332
C -2.3917737877  0.7657002416 -4.7274164136
C -1.7678064685  0.8664638893 -5.9496012724
C -0.3597400533  0.9943597466 -6.0437300036
C  0.4425831942  1.0216361796 -4.9079392551
O  0.1233017893  1.084702135 -7.3091512128
C  1.5396104142  1.22147164 -7.4849841127
C  1.8050619279  1.3028149166 -8.9702237402
H -3.4703072124  0.6690745442 -4.6528269381
H -2.341687587  0.8508976456 -6.8709030809
H  1.5202253536  1.1191181175 -4.9624844769
H  2.0393693947  0.3542613281 -7.0379689255
H  1.8763562519  2.1284840523 -6.9696852551
H  1.4607822592  0.3957346731 -9.4756619249
H  2.880120223  1.4084420974 -9.1419732263
H  1.2975414035  2.1674467563 -9.4079340756
$end

$rem
jobtype sp
exchange M062X
basis 6-31+G*
xc_grid 1
SMX_GAS_PHASE = TRUE
solvent_method sm12
$end

$smx
solvent water
charges mk
$end
--------------------------------------------------------------
 ----------------------------------------------------------------
             Standard Nuclear Orientation (Angstroms)
    I     Atom           X                Y                Z
 ----------------------------------------------------------------
    1      C      -1.1007988041     0.7586913664    -1.4394421396
    2      S      -1.3490265652     0.6247942887     0.3237236817
    3      O      -0.0409381537     0.8787356285     0.9180939636
    4      O      -2.4986083108     1.4476680720     0.6742132126
    5      N      -1.7477561422    -0.9251651594     0.6686228609
    6      H      -1.0100081637    -1.5874795040     0.4197358040
    7      H      -2.6490576178    -1.1971081249     0.2707013354
    8      N      -2.0832663917     0.6994869389    -2.2662306580
    9      C      -1.6051905311     0.7891014257    -3.5622569655
   10      C      -0.2078367785     0.9145687867    -3.6731455482
   11      S       0.5084673562     0.9203353183    -2.0865486332
   12      C      -2.3917737877     0.7657002416    -4.7274164136
   13      C      -1.7678064685     0.8664638893    -5.9496012724
   14      C      -0.3597400533     0.9943597466    -6.0437300036
   15      C       0.4425831942     1.0216361796    -4.9079392551
   16      O       0.1233017893     1.0847021350    -7.3091512128
   17      C       1.5396104142     1.2214716400    -7.4849841127
   18      C       1.8050619279     1.3028149166    -8.9702237402
   19      H      -3.4703072124     0.6690745442    -4.6528269381
   20      H      -2.3416875870     0.8508976456    -6.8709030809
   21      H       1.5202253536     1.1191181175    -4.9624844769
   22      H       2.0393693947     0.3542613281    -7.0379689255
   23      H       1.8763562519     2.1284840523    -6.9696852551
   24      H       1.4607822592     0.3957346731    -9.4756619249
   25      H       2.8801202230     1.4084420974    -9.1419732263
   26      H       1.2975414035     2.1674467563    -9.4079340756
 ----------------------------------------------------------------
 Nuclear Repulsion Energy =        1339.65429936 hartrees
 There are       67 alpha and       67 beta electrons
 Requested basis set is 6-31+G(d)
 There are 102 shells and 332 basis functions

 Total QAlloc Memory Limit   2000 MB
 Mega-Array Size       188 MB
 MEM_STATIC part       192 MB
 A cutoff of  1.0D-08 yielded   3457 shell pairs
 There are     40125 function pairs
 Smallest overlap matrix eigenvalue = 1.37E-07

 Q-Chem warning in module stvman/mkSTV.C, line 323:

 Overlap eigenvalue is smaller than square root of threshold
 Use THRESH >= 12 to get rid of this warning

 Linear dependence detected in AO basis
 Tighter screening thresholds may be required for diffuse basis sets
 Use S2THRESH > 14 and THRESH = 14 in case of SCF convergence issues
 Number of orthogonalized atomic orbitals = 331
 Maximum deviation from orthogonality = 8.285E-11

 Scale SEOQF with 1.000000e-01/1.000000e-01/1.000000e-02

 Standard Electronic Orientation quadrupole field applied
 Nucleus-field energy     =    -0.0000000091 hartrees
 ================ Generating on-the-fly Promolecule Density  ================
Attempting to make child job directory: /jobfs/41235931.gadi-pbs/qchem547393//Frg1/
Attempting to make child job directory: /jobfs/41235931.gadi-pbs/qchem547393//Frg2/
Attempting to make child job directory: /jobfs/41235931.gadi-pbs/qchem547393//Frg3/
Attempting to make child job directory: /jobfs/41235931.gadi-pbs/qchem547393//Frg4/
Attempting to make child job directory: /jobfs/41235931.gadi-pbs/qchem547393//Frg5/
Creating input file /jobfs/41235931.gadi-pbs/qchem547393/Frg1.input
using default PutDataFrgm: nothing
calling putenv with: QCSCRATCH=/jobfs/41235931.gadi-pbs/qchem547393/ 
Spawning Job For Fragment 0
Done Job For Fragment 0
calling putenv with: QCSCRATCH=/jobfs/41235931.gadi-pbs 
calling putenv with: QCTHREADS=16 
Creating input file /jobfs/41235931.gadi-pbs/qchem547393/Frg2.input
using default PutDataFrgm: nothing
calling putenv with: QCSCRATCH=/jobfs/41235931.gadi-pbs/qchem547393/ 
Spawning Job For Fragment 1
Done Job For Fragment 1
calling putenv with: QCSCRATCH=/jobfs/41235931.gadi-pbs 
calling putenv with: QCTHREADS=16 
Creating input file /jobfs/41235931.gadi-pbs/qchem547393/Frg3.input
using default PutDataFrgm: nothing
calling putenv with: QCSCRATCH=/jobfs/41235931.gadi-pbs/qchem547393/ 
Spawning Job For Fragment 2
Done Job For Fragment 2
calling putenv with: QCSCRATCH=/jobfs/41235931.gadi-pbs 
calling putenv with: QCTHREADS=16 
Creating input file /jobfs/41235931.gadi-pbs/qchem547393/Frg4.input
using default PutDataFrgm: nothing
calling putenv with: QCSCRATCH=/jobfs/41235931.gadi-pbs/qchem547393/ 
Spawning Job For Fragment 3
Done Job For Fragment 3
calling putenv with: QCSCRATCH=/jobfs/41235931.gadi-pbs 
calling putenv with: QCTHREADS=16 
Creating input file /jobfs/41235931.gadi-pbs/qchem547393/Frg5.input
using default PutDataFrgm: nothing
calling putenv with: QCSCRATCH=/jobfs/41235931.gadi-pbs/qchem547393/ 
Spawning Job For Fragment 4
Done Job For Fragment 4
calling putenv with: QCSCRATCH=/jobfs/41235931.gadi-pbs 
calling putenv with: QCTHREADS=16 
 Time for running child jobs:  CPU 1.75 s  wall 2.45 s
 ============= Method Specific Promolecule Density Constructed =============
 Guess from superposition of atomic densities
 Warning:  Energy on first SCF cycle will be non-variational
 SAD guess density has 134.000000 electrons

 -----------------------------------------------------------------------
  General SCF calculation program by
  Eric Jon Sundstrom, Paul Horn, Yuezhi Mao, Dmitri Zuev, Alec White,
  David Stuck, Shaama M.S., Shane Yost, Joonho Lee, David Small,
  Daniel Levine, Susi Lehtola, Hugh Burton, Evgeny Epifanovsky,
  Bang C. Huynh
 -----------------------------------------------------------------------
 Exchange:     0.5400 Hartree-Fock + 1.0000 M06-2X
 Correlation:  1.0000 M06-2X
 Using SG-1 standard quadrature grid
 using 16 threads for integral computing
 -------------------------------------------------------
 OpenMP Integral computing Module                
 Release: version 1.0, May 2013, Q-Chem Inc. Pittsburgh 
 -------------------------------------------------------
 A restricted SCF calculation will be
 performed using DIIS
 SCF converges when DIIS error is below 1.0e-05
 ---------------------------------------
  Cycle       Energy         DIIS error
 ---------------------------------------
    1   -1485.3081107426      4.23e-02  
    2   -1479.8300539478      5.00e-03  
    3   -1479.5343731471      7.46e-03  
    4   -1480.1214193453      8.53e-04  
    5   -1480.1290247420      3.76e-04  
    6   -1480.1306794033      9.89e-05  
    7   -1480.1307851955      3.60e-05  
    8   -1480.1308011315      9.86e-06  Convergence criterion met
 ---------------------------------------
 SCF time:   CPU 94.74s  wall 6.00s 
 SCF   energy in the final basis set =    -1480.1308011315
 Total energy in the final basis set =    -1480.1308011315
 Exchange:     0.5400 Hartree-Fock + 1.0000 M06-2X
 Correlation:  1.0000 M06-2X
 Using SG-1 standard quadrature grid
 
 SM12 calculation using Merz-Singh-Kollman charges
 Citation of the SM12 model:
 Marenich, A.V.; Cramer, C.J.; Truhlar, D.G.
 J. Chem. Theory Comput. 2013, 9, 609-612.
 iSolventCode=           1
 Solvent: water                                                           
 
  Building new vdw surfaces
         Merz-Kollman ESP Net Atomic Charges

     Atom                 Charge (a.u.)
  ----------------------------------------
      1 C                     0.090422
      2 S                     1.001048
      3 O                    -0.486082
      4 O                    -0.452268
      5 N                    -0.804491
      6 H                     0.378177
      7 H                     0.399826
      8 N                    -0.545944
      9 C                     0.527276
     10 C                    -0.127198
     11 S                     0.044833
     12 C                    -0.304303
     13 C                    -0.286383
     14 C                     0.324924
     15 C                    -0.268675
     16 O                    -0.415037
     17 C                     0.451162
     18 C                    -0.549535
     19 H                     0.208755
     20 H                     0.204520
     21 H                     0.185727
     22 H                    -0.021547
     23 H                    -0.004670
     24 H                     0.159237
     25 H                     0.131534
     26 H                     0.158691
  ----------------------------------------
  Sum of atomic charges =     0.000000

  Related Dipole Moment =     7.6396 (X  2.3945 Y -3.4333 Z -6.3908)


 Charges (in A.U.) from Merz-Kollman fitting 
 -----------------------------------------------
 Center     Atomic                  MZ       
 Number     Number                  Charge
 -----------------------------------------------
    1          6                    0.090422
    2         16                    1.001048
    3          8                   -0.486082
    4          8                   -0.452268
    5          7                   -0.804491
    6          1                    0.378177
    7          1                    0.399826
    8          7                   -0.545944
    9          6                    0.527276
   10          6                   -0.127198
   11         16                    0.044833
   12          6                   -0.304303
   13          6                   -0.286383
   14          6                    0.324924
   15          6                   -0.268675
   16          8                   -0.415037
   17          6                    0.451162
   18          6                   -0.549535
   19          1                    0.208755
   20          1                    0.204520
   21          1                    0.185727
   22          1                   -0.021547
   23          1                   -0.004670
   24          1                    0.159237
   25          1                    0.131534
   26          1                    0.158691
 -----------------------------------------------
 A restricted SCF calculation will be
 performed using Roothaan-Hall, DIIS
 SCF converges when DIIS error is below 1.0e-05
 ---------------------------------------
  Cycle       Energy         DIIS error
 ---------------------------------------
         Merz-Kollman ESP Net Atomic Charges

     Atom                 Charge (a.u.)
  ----------------------------------------
      1 C                     0.080663
      2 S                     1.036507
      3 O                    -0.527504
      4 O                    -0.512406
      5 N                    -0.786750
      6 H                     0.396549
      7 H                     0.417035
      8 N                    -0.575058
      9 C                     0.522636
     10 C                    -0.111529
     11 S                     0.058981
     12 C                    -0.320908
     13 C                    -0.296740
     14 C                     0.328502
     15 C                    -0.271064
     16 O                    -0.429583
     17 C                     0.452386
     18 C                    -0.556081
     19 H                     0.224364
     20 H                     0.215082
     21 H                     0.207503
     22 H                    -0.012737
     23 H                     0.005781
     24 H                     0.158360
     25 H                     0.138626
     26 H                     0.157385
  ----------------------------------------
  Sum of atomic charges =     0.000000

  Related Dipole Moment =     8.8872 (X  3.0906 Y -4.1007 Z -7.2536)


 Charges (in A.U.) from Merz-Kollman fitting 
 -----------------------------------------------
 Center     Atomic                  MZ       
 Number     Number                  Charge
 -----------------------------------------------
    1          6                    0.080663
    2         16                    1.036507
    3          8                   -0.527504
    4          8                   -0.512406
    5          7                   -0.786750
    6          1                    0.396549
    7          1                    0.417035
    8          7                   -0.575058
    9          6                    0.522636
   10          6                   -0.111529
   11         16                    0.058981
   12          6                   -0.320908
   13          6                   -0.296740
   14          6                    0.328502
   15          6                   -0.271064
   16          8                   -0.429583
   17          6                    0.452386
   18          6                   -0.556081
   19          1                    0.224364
   20          1                    0.215082
   21          1                    0.207503
   22          1                   -0.012737
   23          1                    0.005781
   24          1                    0.158360
   25          1                    0.138626
   26          1                    0.157385
 -----------------------------------------------
    1   -1480.1308029568      3.56e-04  Roothaan Step
 ---------------------------------------
  Cycle       Energy         DIIS error
 ---------------------------------------
         Merz-Kollman ESP Net Atomic Charges

     Atom                 Charge (a.u.)
  ----------------------------------------
      1 C                     0.105056
      2 S                     0.992674
      3 O                    -0.512064
      4 O                    -0.482075
      5 N                    -0.800996
      6 H                     0.394935
      7 H                     0.419295
      8 N                    -0.567981
      9 C                     0.538292
     10 C                    -0.132118
     11 S                     0.037519
     12 C                    -0.315458
     13 C                    -0.299559
     14 C                     0.339071
     15 C                    -0.289169
     16 O                    -0.417169
     17 C                     0.434682
     18 C                    -0.546946
     19 H                     0.223846
     20 H                     0.215709
     21 H                     0.211728
     22 H                    -0.011670
     23 H                     0.011374
     24 H                     0.157514
     25 H                     0.137288
     26 H                     0.156223
  ----------------------------------------
  Sum of atomic charges =     0.000000

  Related Dipole Moment =     8.7949 (X  2.6757 Y -3.8591 Z -7.4362)


 Charges (in A.U.) from Merz-Kollman fitting 
 -----------------------------------------------
 Center     Atomic                  MZ       
 Number     Number                  Charge
 -----------------------------------------------
    1          6                    0.105056
    2         16                    0.992674
    3          8                   -0.512064
    4          8                   -0.482075
    5          7                   -0.800996
    6          1                    0.394935
    7          1                    0.419295
    8          7                   -0.567981
    9          6                    0.538292
   10          6                   -0.132118
   11         16                    0.037519
   12          6                   -0.315458
   13          6                   -0.299559
   14          6                    0.339071
   15          6                   -0.289169
   16          8                   -0.417169
   17          6                    0.434682
   18          6                   -0.546946
   19          1                    0.223846
   20          1                    0.215709
   21          1                    0.211728
   22          1                   -0.011670
   23          1                    0.011374
   24          1                    0.157514
   25          1                    0.137288
   26          1                    0.156223
 -----------------------------------------------
    1   -1480.1257440157      2.51e-04  
         Merz-Kollman ESP Net Atomic Charges

     Atom                 Charge (a.u.)
  ----------------------------------------
      1 C                     0.098920
      2 S                     1.031570
      3 O                    -0.527218
      4 O                    -0.508133
      5 N                    -0.793940
      6 H                     0.395765
      7 H                     0.418380
      8 N                    -0.578470
      9 C                     0.528960
     10 C                    -0.118319
     11 S                     0.046548
     12 C                    -0.319754
     13 C                    -0.299439
     14 C                     0.336059
     15 C                    -0.282358
     16 O                    -0.423611
     17 C                     0.439434
     18 C                    -0.549739
     19 H                     0.225380
     20 H                     0.216279
     21 H                     0.211096
     22 H                    -0.010757
     23 H                     0.010588
     24 H                     0.157781
     25 H                     0.138389
     26 H                     0.156589
  ----------------------------------------
  Sum of atomic charges =     0.000000

  Related Dipole Moment =     8.9663 (X  2.9652 Y -4.0227 Z -7.4445)


 Charges (in A.U.) from Merz-Kollman fitting 
 -----------------------------------------------
 Center     Atomic                  MZ       
 Number     Number                  Charge
 -----------------------------------------------
    1          6                    0.098920
    2         16                    1.031570
    3          8                   -0.527218
    4          8                   -0.508133
    5          7                   -0.793940
    6          1                    0.395765
    7          1                    0.418380
    8          7                   -0.578470
    9          6                    0.528960
   10          6                   -0.118319
   11         16                    0.046548
   12          6                   -0.319754
   13          6                   -0.299439
   14          6                    0.336059
   15          6                   -0.282358
   16          8                   -0.423611
   17          6                    0.439434
   18          6                   -0.549739
   19          1                    0.225380
   20          1                    0.216279
   21          1                    0.211096
   22          1                   -0.010757
   23          1                    0.010588
   24          1                    0.157781
   25          1                    0.138389
   26          1                    0.156589
 -----------------------------------------------
    2   -1480.1265356163      3.15e-04  
         Merz-Kollman ESP Net Atomic Charges

     Atom                 Charge (a.u.)
  ----------------------------------------
      1 C                     0.092182
      2 S                     1.024459
      3 O                    -0.526072
      4 O                    -0.505441
      5 N                    -0.792482
      6 H                     0.396121
      7 H                     0.418971
      8 N                    -0.575232
      9 C                     0.529836
     10 C                    -0.118878
     11 S                     0.048448
     12 C                    -0.319590
     13 C                    -0.300191
     14 C                     0.336499
     15 C                    -0.282431
     16 O                    -0.423470
     17 C                     0.440188
     18 C                    -0.550071
     19 H                     0.225727
     20 H                     0.216666
     21 H                     0.211903
     22 H                    -0.010818
     23 H                     0.010647
     24 H                     0.157799
     25 H                     0.138643
     26 H                     0.156587
  ----------------------------------------
  Sum of atomic charges =     0.000000

  Related Dipole Moment =     9.0228 (X  2.9646 Y -4.0259 Z -7.5110)


 Charges (in A.U.) from Merz-Kollman fitting 
 -----------------------------------------------
 Center     Atomic                  MZ       
 Number     Number                  Charge
 -----------------------------------------------
    1          6                    0.092182
    2         16                    1.024459
    3          8                   -0.526072
    4          8                   -0.505441
    5          7                   -0.792482
    6          1                    0.396121
    7          1                    0.418971
    8          7                   -0.575232
    9          6                    0.529836
   10          6                   -0.118878
   11         16                    0.048448
   12          6                   -0.319590
   13          6                   -0.300191
   14          6                    0.336499
   15          6                   -0.282431
   16          8                   -0.423470
   17          6                    0.440188
   18          6                   -0.550071
   19          1                    0.225727
   20          1                    0.216666
   21          1                    0.211903
   22          1                   -0.010818
   23          1                    0.010647
   24          1                    0.157799
   25          1                    0.138643
   26          1                    0.156587
 -----------------------------------------------
    3   -1480.1261666332      2.90e-05  
         Merz-Kollman ESP Net Atomic Charges

     Atom                 Charge (a.u.)
  ----------------------------------------
      1 C                     0.097251
      2 S                     1.026221
      3 O                    -0.526639
      4 O                    -0.506709
      5 N                    -0.793743
      6 H                     0.396243
      7 H                     0.419154
      8 N                    -0.577520
      9 C                     0.529611
     10 C                    -0.119377
     11 S                     0.047086
     12 C                    -0.319788
     13 C                    -0.300181
     14 C                     0.337029
     15 C                    -0.283295
     16 O                    -0.423220
     17 C                     0.439160
     18 C                    -0.549768
     19 H                     0.225912
     20 H                     0.216790
     21 H                     0.212133
     22 H                    -0.010538
     23 H                     0.011079
     24 H                     0.157805
     25 H                     0.138727
     26 H                     0.156578
  ----------------------------------------
  Sum of atomic charges =     0.000000

  Related Dipole Moment =     9.0308 (X  2.9708 Y -4.0240 Z -7.5191)


 Charges (in A.U.) from Merz-Kollman fitting 
 -----------------------------------------------
 Center     Atomic                  MZ       
 Number     Number                  Charge
 -----------------------------------------------
    1          6                    0.097251
    2         16                    1.026221
    3          8                   -0.526639
    4          8                   -0.506709
    5          7                   -0.793743
    6          1                    0.396243
    7          1                    0.419154
    8          7                   -0.577520
    9          6                    0.529611
   10          6                   -0.119377
   11         16                    0.047086
   12          6                   -0.319788
   13          6                   -0.300181
   14          6                    0.337029
   15          6                   -0.283295
   16          8                   -0.423220
   17          6                    0.439160
   18          6                   -0.549768
   19          1                    0.225912
   20          1                    0.216790
   21          1                    0.212133
   22          1                   -0.010538
   23          1                    0.011079
   24          1                    0.157805
   25          1                    0.138727
   26          1                    0.156578
 -----------------------------------------------
    4   -1480.1260323456      1.79e-05  
    5   -1480.1259871030      4.61e-06  Convergence criterion met
 ---------------------------------------
 SCF time:   CPU 108.00s  wall 7.00s 
(0)  E-EN(g) gas-phase elect-nuc energy                -1480.130801132 a.u.
(1)  E-EN(liq) elect-nuc energy of solute              -1480.125987103 a.u.
(2)  G-P(liq) polarization free energy of solvation           -20.0405 kcal/mol
(3)  G-ENP(liq) elect-nuc-pol free energy of system    -1480.157923667 a.u.
(4)  G-CDS(liq) cavity-dispersion-solvent structure 
     free energy                                                0.5295 kcal/mol
(5)  G-P-CDS(liq) = G-P(liq) + G-CDS(liq) = (2) + (4)         -19.5110 kcal/mol
(6)  G-S(liq) free energy of system = (1) + (5)        -1480.157079881 a.u.
(7)  DeltaE-EN(liq) elect-nuc reorganization
     energy of solute molecule (7) = (1) - (0)                  3.0208 kcal/mol
(8)  DeltaG-ENP(liq) elect-nuc-pol free energy
     of solvation (8) = (3) - (0)                             -17.0196 kcal/mol
(9)  DeltaG-S(liq) free energy of  solvation
     (9) = (6) - (0)                                          -16.4902 kcal/mol
 SCF   energy in the final basis set =    -1480.1570798806
 Total energy in the final basis set =    -1480.1570798806
 
 --------------------------------------------------------------
 
                    Orbital Energies (a.u.)
 --------------------------------------------------------------
 
 Alpha MOs
 -- Occupied --
-90.1942 -89.9905 -19.6885 -19.6704 -19.6696 -14.8168 -14.8108 -10.6639
-10.6401 -10.6187 -10.6104 -10.6086 -10.5807 -10.5807 -10.5720 -10.5420
 -8.5027  -8.3334  -6.4247  -6.4243  -6.4238  -6.2532  -6.2508  -6.2491
 -1.2735  -1.2056  -1.1587  -1.1171  -1.0458  -0.9802  -0.9304  -0.8899
 -0.8582  -0.8495  -0.7904  -0.7402  -0.7070  -0.6980  -0.6848  -0.6332
 -0.6286  -0.6148  -0.6036  -0.5883  -0.5709  -0.5559  -0.5453  -0.5312
 -0.5301  -0.4994  -0.4891  -0.4800  -0.4707  -0.4517  -0.4482  -0.4354
 -0.4348  -0.4284  -0.4180  -0.4119  -0.4059  -0.4039  -0.3892  -0.3833
 -0.3733  -0.3117  -0.2888
 -- Virtual --
 -0.0429  -0.0095  -0.0013   0.0021   0.0211   0.0268   0.0339   0.0364
  0.0369   0.0385   0.0501   0.0521   0.0557   0.0597   0.0648   0.0706
  0.0737   0.0746   0.0803   0.0888   0.0925   0.0979   0.1003   0.1058
  0.1092   0.1131   0.1174   0.1239   0.1287   0.1368   0.1401   0.1431
  0.1487   0.1498   0.1554   0.1625   0.1650   0.1716   0.1780   0.1796
  0.1856   0.1902   0.1951   0.1984   0.2015   0.2036   0.2117   0.2178
  0.2200   0.2246   0.2269   0.2340   0.2358   0.2395   0.2468   0.2495
  0.2526   0.2542   0.2567   0.2669   0.2753   0.2807   0.2825   0.2886
  0.2963   0.2973   0.3031   0.3043   0.3089   0.3124   0.3159   0.3194
  0.3268   0.3327   0.3368   0.3383   0.3429   0.3477   0.3608   0.3641
  0.3788   0.3867   0.3897   0.4016   0.4100   0.4226   0.4268   0.4372
  0.4453   0.4622   0.4755   0.5165   0.5187   0.5329   0.5659   0.5845
  0.6015   0.6136   0.6484   0.6650   0.6742   0.6815   0.6965   0.6996
  0.7063   0.7146   0.7208   0.7290   0.7388   0.7475   0.7550   0.7567
  0.7711   0.7830   0.7886   0.7999   0.8122   0.8257   0.8441   0.8520
  0.8876   0.9119   0.9225   0.9315   0.9439   0.9522   0.9690   0.9888
  1.0018   1.0050   1.0088   1.0173   1.0198   1.0316   1.0422   1.0444
  1.0535   1.0776   1.0786   1.0888   1.1070   1.1168   1.1189   1.1371
  1.1453   1.1546   1.1604   1.1764   1.1853   1.1881   1.2143   1.2239
  1.2477   1.2540   1.2559   1.2712   1.2788   1.2862   1.3027   1.3110
  1.3364   1.3479   1.3594   1.3636   1.3660   1.3885   1.3947   1.4041
  1.4093   1.4214   1.4532   1.4614   1.4818   1.4988   1.5141   1.5272
  1.5516   1.5598   1.5711   1.5980   1.6239   1.6406   1.6846   1.7188
  1.7271   1.7461   1.7712   1.8023   1.8151   1.8410   1.8508   1.8549
  1.9008   1.9068   1.9141   1.9238   1.9367   1.9507   1.9713   2.0058
  2.0075   2.0113   2.0246   2.0306   2.0588   2.0814   2.1242   2.1336
  2.1396   2.1518   2.1563   2.1665   2.1783   2.1876   2.2214   2.2544
  2.2753   2.2908   2.3070   2.3127   2.3386   2.3403   2.3848   2.4062
  2.4396   2.4480   2.4586   2.4791   2.4960   2.5066   2.5513   2.5787
  2.6402   2.6666   2.6891   2.7403   2.7648   2.8216   2.8329   2.8763
  2.8812   2.8898   2.9507   2.9981   3.0933   3.1239   3.2378   3.4154
  3.8734   3.9934   4.0601   4.1677   4.2331   4.2653   4.2913   4.3068
  4.3508   4.3622   4.3831   4.4392   4.4957   4.5576   4.6223   4.8327
 --------------------------------------------------------------
 
          Ground-State Mulliken Net Atomic Charges

     Atom                 Charge (a.u.)
  ----------------------------------------
      1 C                    -0.935473
      2 S                     1.617927
      3 O                    -0.681224
      4 O                    -0.672149
      5 N                    -0.775345
      6 H                     0.510919
      7 H                     0.510317
      8 N                    -0.160106
      9 C                    -1.253760
     10 C                     0.825175
     11 S                     0.681626
     12 C                    -1.030136
     13 C                    -0.596872
     14 C                     0.160459
     15 C                     0.961473
     16 O                    -0.482168
     17 C                     0.419191
     18 C                    -1.112667
     19 H                     0.280997
     20 H                     0.267060
     21 H                     0.292683
     22 H                     0.239504
     23 H                     0.244708
     24 H                     0.225000
     25 H                     0.237287
     26 H                     0.225562
  ----------------------------------------
  Sum of atomic charges =    -0.000011

         Merz-Kollman ESP Net Atomic Charges

     Atom                 Charge (a.u.)
  ----------------------------------------
      1 C                     0.096112
      2 S                     1.027075
      3 O                    -0.526935
      4 O                    -0.506935
      5 N                    -0.793585
      6 H                     0.396128
      7 H                     0.419054
      8 N                    -0.577109
      9 C                     0.529635
     10 C                    -0.118754
     11 S                     0.046969
     12 C                    -0.319775
     13 C                    -0.300281
     14 C                     0.337246
     15 C                    -0.283508
     16 O                    -0.423264
     17 C                     0.438933
     18 C                    -0.549670
     19 H                     0.225901
     20 H                     0.216791
     21 H                     0.212159
     22 H                    -0.010468
     23 H                     0.011165
     24 H                     0.157802
     25 H                     0.138743
     26 H                     0.156573
  ----------------------------------------
  Sum of atomic charges =     0.000000

  Related Dipole Moment =     9.0362 (X  2.9703 Y -4.0242 Z -7.5257)

 -----------------------------------------------------------------
                    Cartesian Multipole Moments
 -----------------------------------------------------------------
    Charge (ESU x 10^10)
                -0.0001
    Dipole Moment (Debye)
         X       2.9809      Y      -3.9484      Z      -7.4975
       Tot       8.9827
    Quadrupole Moments (Debye-Ang)
        XX    -104.7117     XY      12.4210     YY    -108.4240
        XZ     -10.6507     YZ     -10.2268     ZZ     -76.1740
    Octopole Moments (Debye-Ang^2)
       XXX     203.3796    XXY    -106.6342    XYY      74.7556
       YYY    -279.4811    XXZ     281.9657    XYZ     -16.5369
       YYZ     344.4629    XZZ     159.8204    YZZ     -37.3165
       ZZZ     783.4672
    Hexadecapole Moments (Debye-Ang^3)
      XXXX   -1475.2866   XXXY     150.4066   XXYY    -389.8595
      XYYY     103.2149   YYYY    -741.2515   XXXZ     156.6639
      XXYZ     296.8848   XYYZ      -0.1918   YYYZ    1102.1809
      XXZZ   -2047.8550   XYZZ     158.9881   YYZZ   -2303.8993
      XZZZ    -582.7484   YZZZ     733.6903   ZZZZ  -11305.8903
 -----------------------------------------------------------------
 Total job time:  17.04s(wall), 212.59s(cpu) 
 Wed May 25 16:17:49 2022

        *************************************************************
        *                                                           *
        *  Thank you very much for using Q-Chem.  Have a nice day.  *
        *                                                           *
        *************************************************************


