                  Welcome to Q-Chem
     A Quantum Leap Into The Future Of Chemistry


 Q-Chem 5.4 (devel), Q-Chem, Inc., Pleasanton, CA (2021)

 E. Epifanovsky,  A. T. B. Gilbert,  Xintian Feng,  Joonho Lee,  Yuezhi Mao,  
 N. Mardirossian,  P. Pokhilko,  A. White,  M. Wormit,  M. P. Coons,  
 A. L. Dempwolff,  Zhengting Gan,  D. Hait,  P. R. Horn,  L. D. Jacobson,  
 I. Kaliman,  J. Kussmann,  A. W. Lange,  Ka Un Lao,  D. S. Levine,  Jie Liu,  
 S. C. McKenzie,  A. F. Morrison,  K. Nanda,  F. Plasser,  D. R. Rehn,  
 M. L. Vidal,  Zhi-Qiang You,  Ying Zhu,  B. Alam,  B. Albrecht,  
 A. Aldossary,  E. Alguire,  J. H. Andersen,  D. Barton,  K. Begam,  A. Behn,  
 Y. A. Bernard,  E. J. Berquist,  H. Burton,  A. Carreras,  K. Carter-Fenk,  
 R. Chakraborty,  A. D. Chien,  K. D. Closser,  V. Cofer-Shabica,  
 S. Dasgupta,  Jia Deng,  M. de Wergifosse,  M. Diedenhofen,  Hainam Do,  
 S. Ehlert,  Po-Tung Fang,  S. Fatehi,  Qingguo Feng,  T. Friedhoff,  
 J. Gayvert,  Qinghui Ge,  G. Gidofalvi,  M. Goldey,  J. Gomes,  
 C. Gonzalez-Espinoza,  S. Gulania,  A. Gunina,  M. W. D. Hanson-Heine,  
 P. H. P. Harbach,  A. W. Hauser,  M. F. Herbst,  M. Hernandez Vera,  
 M. Hodecker,  Z. C. Holden,  S. Houck,  Xunkun Huang,  Kerwin Hui,  
 B. C. Huynh,  M. Ivanov,  Hyunjun Ji,  Hanjie Jiang,  B. Kaduk,  S. Kaehler,  
 K. Khistyaev,  Jaehoon Kim,  P. Klunzinger,  Z. Koczor-Benda,  
 Joong Hoon Koh,  D. Kosenkov,  L. Koulias,  T. Kowalczyk,  C. M. Krauter,  
 K. Kue,  A. Kunitsa,  T. Kus,  A. Landau,  K. V. Lawler,  D. Lefrancois,  
 S. Lehtola,  Rain Li,  Yi-Pei Li,  Jiashu Liang,  M. Liebenthal,  
 Hung-Hsuan Lin,  You-Sheng Lin,  Fenglai Liu,  Kuan-Yu Liu,  
 M. Loipersberger,  A. Luenser,  A. Manjanath,  P. Manohar,  E. Mansoor,  
 S. F. Manzer,  Shan-Ping Mao,  A. V. Marenich,  T. Markovich,  S. Mason,  
 S. A. Maurer,  P. F. McLaughlin,  M. F. S. J. Menger,  J.-M. Mewes,  
 S. A. Mewes,  P. Morgante,  J. W. Mullinax,  K. J. Oosterbaan,  G. Paran,  
 Alexander C. Paul,  Suranjan K. Paul,  F. Pavosevic,  Zheng Pei,  S. Prager,  
 E. I. Proynov,  E. Ramos,  B. Rana,  A. E. Rask,  A. Rettig,  R. M. Richard,  
 F. Rob,  E. Rossomme,  T. Scheele,  M. Scheurer,  M. Schneider,  
 N. Sergueev,  S. M. Sharada,  W. Skomorowski,  D. W. Small,  C. J. Stein,  
 Yu-Chuan Su,  E. J. Sundstrom,  Zhen Tao,  J. Thirman,  T. Tsuchimochi,  
 N. M. Tubman,  S. P. Veccham,  O. Vydrov,  J. Wenzel,  J. Witte,  A. Yamada,  
 Kun Yao,  S. Yeganeh,  S. R. Yost,  A. Zech,  Igor Ying Zhang,  Xing Zhang,  
 Yu Zhang,  D. Zuev,  A. Aspuru-Guzik,  A. T. Bell,  N. A. Besley,  
 K. B. Bravaya,  B. R. Brooks,  D. Casanova,  Jeng-Da Chai,  S. Coriani,  
 C. J. Cramer,  A. E. DePrince, III,  R. A. DiStasio Jr.,  A. Dreuw,  
 B. D. Dunietz,  T. R. Furlani,  W. A. Goddard III,  S. Grimme,  
 S. Hammes-Schiffer,  T. Head-Gordon,  W. J. Hehre,  Chao-Ping Hsu,  
 T.-C. Jagau,  Yousung Jung,  A. Klamt,  Jing Kong,  D. S. Lambrecht,  
 WanZhen Liang,  N. J. Mayhall,  C. W. McCurdy,  J. B. Neaton,  
 C. Ochsenfeld,  J. A. Parkhill,  R. Peverati,  V. A. Rassolov,  Yihan Shao,  
 L. V. Slipchenko,  T. Stauch,  R. P. Steele,  J. E. Subotnik,  
 A. J. W. Thom,  A. Tkatchenko,  D. G. Truhlar,  T. Van Voorhis,  
 T. A. Wesolowski,  K. B. Whaley,  H. L. Woodcock III,  P. M. Zimmerman,  
 S. Faraji,  P. M. W. Gill,  M. Head-Gordon,  J. M. Herbert,  A. I. Krylov

 Additional authors for Version 5.4.1: 
 S. Kotaru,  Shaozhi Li,  Xiangyuan Li,  F. Matz,  A. Molle,  Haisheng Ren,  
 Yingli Su,  Hung-Yi Tsai,  C. Utku,  Fang Wang

 Contributors to earlier versions of Q-Chem not listed above: 
 R. D. Adamson,  B. Austin,  R. Baer,  J. Baker,  G. J. O. Beran,  
 K. Brandhorst,  S. T. Brown,  E. F. C. Byrd,  A. K. Chakraborty,  
 G. K. L. Chan,  Chun-Min Chang,  Yunqing Chen,  C.-L. Cheng,  
 Siu Hung Chien,  D. M. Chipman,  D. L. Crittenden,  H. Dachsel,  
 R. J. Doerksen,  A. D. Dutoi,  R. G. Edgar,  J. Fosso-Tande,  
 L. Fusti-Molnar,  D. Ghosh,  A. Ghysels,  A. Golubeva-Zadorozhnaya,  
 J. Gonthier,  M. S. Gordon,  S. R. Gwaltney,  G. Hawkins,  J. E. Herr,  
 A. Heyden,  S. Hirata,  E. G. Hohenstein,  G. Kedziora,  F. J. Keil,  
 C. Kelley,  Jihan Kim,  R. A. King,  R. Z. Khaliullin,  P. P. Korambath,  
 W. Kurlancheek,  A. Laurent,  A. M. Lee,  M. S. Lee,  S. V. Levchenko,  
 Ching Yeh Lin,  D. Liotard,  E. Livshits,  R. C. Lochan,  I. Lotan,  
 L. A. Martinez-Martinez,  P. E. Maslen,  N. Nair,  D. P. O'Neill,  
 D. Neuhauser,  E. Neuscamman,  C. M. Oana,  R. Olivares-Amaya,  R. Olson,  
 T. M. Perrine,  B. Peters,  P. A. Pieniazek,  A. Prociuk,  Y. M. Rhee,  
 J. Ritchie,  M. A. Rohrdanz,  E. Rosta,  N. J. Russ,  H. F. Schaefer III,  
 M. W. Schmidt,  N. E. Schultz,  S. Sharma,  N. Shenvi,  C. D. Sherrill,  
 A. C. Simmonett,  A. Sodt,  T. Stein,  D. Stuck,  K. S. Thanthiriwatte,  
 V. Vanovschi,  L. Vogt,  Tao Wang,  A. Warshel,  M. A. Watson,  
 C. F. Williams,  Q. Wu,  X. Xu,  Jun Yang,  W. Zhang,  Yan Zhao

 Please cite Q-Chem as follows:
 Y. Shao et al., Mol. Phys. 113, 184-215 (2015)
 DOI: 10.1080/00268976.2014.952696

 Q-Chem 5.4.1 for Intel X86 EM64T Linux

 Parts of Q-Chem use Armadillo 9.800.1 (Horizon Scraper).
 http://arma.sourceforge.net/

 Q-Chem begins on Thu Jun 30 13:21:58 2022  

 Host: gadi-cpu-clx-1116.gadi.nci.org.au
0

     Scratch files written to /jobfs/48953026.gadi-pbs/qchem3820384//
 Processing $rem in /apps/qchem/5.4.1/config/preferences:
 Processing $rem in /home/561/yj5695/.qchemrc:
 Symmetry turned off for PCM/SM12/SMD calculation
 Method-specific promolecule density matrix will be built for SM12 calculation

 Checking the input file for inconsistencies... 	...done.

--------------------------------------------------------------
User input:
--------------------------------------------------------------
$molecule
0  1
C -1.3731073016  0.3032416026 -1.1267941441
C -2.4741403323  0.7079411161 -1.9045181731
Cl -4.0064683327  1.0875708407 -1.1707957356
C -2.3821066737  0.811644237 -3.2770611212
H -3.239019065  1.1241592052 -3.8659446884
C -1.1634113315  0.5180216031 -3.9157491646
C -0.0638635823  0.0959071035 -3.1440055903
C  1.1869408393 -0.3304974534 -3.8199572212
C -0.1786733213 -0.0121996978 -1.7646702885
H  0.6743549726 -0.3490296846 -1.1847176007
S -1.4250919638  0.1761555993  0.6457771994
O -0.1170427755 -0.3244749639  1.0633006902
O -1.9115651962  1.4376430088  1.202357306
N -2.5163466873 -0.9762452056  1.0900639667
H -2.3024788656 -1.8881921894  0.6814300803
H -3.4812450416 -0.7033576809  0.8984091556
N -1.0325369965  0.5651727056 -5.2754969886
C  0.2951048562  0.8465564941 -5.8093584682
N  1.2665520556 -0.042219729 -5.1448651794
C  0.6870080876  2.3117840383 -5.673342671
H -1.7762739261  1.0507329594 -5.7706610727
H  0.2837630924  0.5638057666 -6.8628063786
H  1.6840030398  2.4760523262 -6.0950664613
H  0.6899029338  2.6168935861 -4.6214193845
O  2.0677302972 -0.9591324595 -3.2194182488
C  2.4554569779 -0.3590566379 -5.8856161563
C  3.6893268318  0.2238147921 -5.5593361152
C  3.8690093367  1.1742363845 -4.4061058638
C  4.7925658333 -0.1172971674 -6.3536647901
H  5.7574148288  0.3257641178 -6.1181232201
C  4.6784860667 -0.9914265562 -7.430986064
H  5.5536736049 -1.2311061739 -8.027888934
C  3.4392840893 -1.5514120912 -7.7450933019
H  3.3367823195 -2.2328223787 -8.5840753992
C  2.3303787865 -1.2330391002 -6.9684332379
H  1.3558033263 -1.6593206738 -7.192377851
H -0.0290245038  2.9300415268 -6.2232445116
H  4.616305844  1.9323124585 -4.6570754069
H  4.2215931886  0.637161157 -3.5183796748
H  2.9396476883  1.6817962142 -4.1355132906
$end

$rem
jobtype sp
exchange M062X
basis 6-31+G*
SMX_GAS_PHASE = TRUE
solvent_method sm12
$end

$smx
solvent water
charges mk
$end
--------------------------------------------------------------
 ----------------------------------------------------------------
             Standard Nuclear Orientation (Angstroms)
    I     Atom           X                Y                Z
 ----------------------------------------------------------------
    1      C      -1.3731073016     0.3032416026    -1.1267941441
    2      C      -2.4741403323     0.7079411161    -1.9045181731
    3      Cl     -4.0064683327     1.0875708407    -1.1707957356
    4      C      -2.3821066737     0.8116442370    -3.2770611212
    5      H      -3.2390190650     1.1241592052    -3.8659446884
    6      C      -1.1634113315     0.5180216031    -3.9157491646
    7      C      -0.0638635823     0.0959071035    -3.1440055903
    8      C       1.1869408393    -0.3304974534    -3.8199572212
    9      C      -0.1786733213    -0.0121996978    -1.7646702885
   10      H       0.6743549726    -0.3490296846    -1.1847176007
   11      S      -1.4250919638     0.1761555993     0.6457771994
   12      O      -0.1170427755    -0.3244749639     1.0633006902
   13      O      -1.9115651962     1.4376430088     1.2023573060
   14      N      -2.5163466873    -0.9762452056     1.0900639667
   15      H      -2.3024788656    -1.8881921894     0.6814300803
   16      H      -3.4812450416    -0.7033576809     0.8984091556
   17      N      -1.0325369965     0.5651727056    -5.2754969886
   18      C       0.2951048562     0.8465564941    -5.8093584682
   19      N       1.2665520556    -0.0422197290    -5.1448651794
   20      C       0.6870080876     2.3117840383    -5.6733426710
   21      H      -1.7762739261     1.0507329594    -5.7706610727
   22      H       0.2837630924     0.5638057666    -6.8628063786
   23      H       1.6840030398     2.4760523262    -6.0950664613
   24      H       0.6899029338     2.6168935861    -4.6214193845
   25      O       2.0677302972    -0.9591324595    -3.2194182488
   26      C       2.4554569779    -0.3590566379    -5.8856161563
   27      C       3.6893268318     0.2238147921    -5.5593361152
   28      C       3.8690093367     1.1742363845    -4.4061058638
   29      C       4.7925658333    -0.1172971674    -6.3536647901
   30      H       5.7574148288     0.3257641178    -6.1181232201
   31      C       4.6784860667    -0.9914265562    -7.4309860640
   32      H       5.5536736049    -1.2311061739    -8.0278889340
   33      C       3.4392840893    -1.5514120912    -7.7450933019
   34      H       3.3367823195    -2.2328223787    -8.5840753992
   35      C       2.3303787865    -1.2330391002    -6.9684332379
   36      H       1.3558033263    -1.6593206738    -7.1923778510
   37      H      -0.0290245038     2.9300415268    -6.2232445116
   38      H       4.6163058440     1.9323124585    -4.6570754069
   39      H       4.2215931886     0.6371611570    -3.5183796748
   40      H       2.9396476883     1.6817962142    -4.1355132906
 ----------------------------------------------------------------
 Nuclear Repulsion Energy =        2401.31237799 hartrees
 There are       95 alpha and       95 beta electrons
 Requested basis set is 6-31+G(d)
 There are 154 shells and 496 basis functions

 Total QAlloc Memory Limit   2000 MB
 Mega-Array Size       188 MB
 MEM_STATIC part       192 MB
 A cutoff of  1.0D-08 yielded   7453 shell pairs
 There are     83540 function pairs
 Smallest overlap matrix eigenvalue = 2.92E-07

 Q-Chem warning in module stvman/mkSTV.C, line 323:

 Overlap eigenvalue is smaller than square root of threshold
 Use THRESH >= 12 to get rid of this warning

 Linear dependence detected in AO basis
 Tighter screening thresholds may be required for diffuse basis sets
 Use S2THRESH > 14 and THRESH = 14 in case of SCF convergence issues
 Number of orthogonalized atomic orbitals = 491
 Maximum deviation from orthogonality = 1.052E-10

 Scale SEOQF with 1.000000e-02/1.000000e-01/1.000000e-02

 Standard Electronic Orientation quadrupole field applied
 Nucleus-field energy     =    -0.0000000196 hartrees
 ================ Generating on-the-fly Promolecule Density  ================
Attempting to make child job directory: /jobfs/48953026.gadi-pbs/qchem3820384//Frg1/
Attempting to make child job directory: /jobfs/48953026.gadi-pbs/qchem3820384//Frg2/
Attempting to make child job directory: /jobfs/48953026.gadi-pbs/qchem3820384//Frg3/
Attempting to make child job directory: /jobfs/48953026.gadi-pbs/qchem3820384//Frg4/
Attempting to make child job directory: /jobfs/48953026.gadi-pbs/qchem3820384//Frg5/
Attempting to make child job directory: /jobfs/48953026.gadi-pbs/qchem3820384//Frg6/
Creating input file /jobfs/48953026.gadi-pbs/qchem3820384/Frg1.input
using default PutDataFrgm: nothing
calling putenv with: QCSCRATCH=/jobfs/48953026.gadi-pbs/qchem3820384/ 
Spawning Job For Fragment 0
Done Job For Fragment 0
calling putenv with: QCSCRATCH=/jobfs/48953026.gadi-pbs 
calling putenv with: QCTHREADS=8 
Creating input file /jobfs/48953026.gadi-pbs/qchem3820384/Frg2.input
using default PutDataFrgm: nothing
calling putenv with: QCSCRATCH=/jobfs/48953026.gadi-pbs/qchem3820384/ 
Spawning Job For Fragment 1
Done Job For Fragment 1
calling putenv with: QCSCRATCH=/jobfs/48953026.gadi-pbs 
calling putenv with: QCTHREADS=8 
Creating input file /jobfs/48953026.gadi-pbs/qchem3820384/Frg3.input
using default PutDataFrgm: nothing
calling putenv with: QCSCRATCH=/jobfs/48953026.gadi-pbs/qchem3820384/ 
Spawning Job For Fragment 2
Done Job For Fragment 2
calling putenv with: QCSCRATCH=/jobfs/48953026.gadi-pbs 
calling putenv with: QCTHREADS=8 
Creating input file /jobfs/48953026.gadi-pbs/qchem3820384/Frg4.input
using default PutDataFrgm: nothing
calling putenv with: QCSCRATCH=/jobfs/48953026.gadi-pbs/qchem3820384/ 
Spawning Job For Fragment 3
Done Job For Fragment 3
calling putenv with: QCSCRATCH=/jobfs/48953026.gadi-pbs 
calling putenv with: QCTHREADS=8 
Creating input file /jobfs/48953026.gadi-pbs/qchem3820384/Frg5.input
using default PutDataFrgm: nothing
calling putenv with: QCSCRATCH=/jobfs/48953026.gadi-pbs/qchem3820384/ 
Spawning Job For Fragment 4
Done Job For Fragment 4
calling putenv with: QCSCRATCH=/jobfs/48953026.gadi-pbs 
calling putenv with: QCTHREADS=8 
Creating input file /jobfs/48953026.gadi-pbs/qchem3820384/Frg6.input
using default PutDataFrgm: nothing
calling putenv with: QCSCRATCH=/jobfs/48953026.gadi-pbs/qchem3820384/ 
Spawning Job For Fragment 5
Done Job For Fragment 5
calling putenv with: QCSCRATCH=/jobfs/48953026.gadi-pbs 
calling putenv with: QCTHREADS=8 
 Time for running child jobs:  CPU 0.84 s  wall 2.29 s
 ============= Method Specific Promolecule Density Constructed =============
 Guess from superposition of atomic densities
 Warning:  Energy on first SCF cycle will be non-variational
 SAD guess density has 190.000000 electrons

 -----------------------------------------------------------------------
  General SCF calculation program by
  Eric Jon Sundstrom, Paul Horn, Yuezhi Mao, Dmitri Zuev, Alec White,
  David Stuck, Shaama M.S., Shane Yost, Joonho Lee, David Small,
  Daniel Levine, Susi Lehtola, Hugh Burton, Evgeny Epifanovsky,
  Bang C. Huynh
 -----------------------------------------------------------------------
 Exchange:     0.5400 Hartree-Fock + 1.0000 M06-2X
 Correlation:  1.0000 M06-2X
 Using SG-3 standard quadrature grid
 using 8 threads for integral computing
 -------------------------------------------------------
 OpenMP Integral computing Module                
 Release: version 1.0, May 2013, Q-Chem Inc. Pittsburgh 
 -------------------------------------------------------
 A restricted SCF calculation will be
 performed using DIIS
 SCF converges when DIIS error is below 1.0e-05
 ---------------------------------------
  Cycle       Energy         DIIS error
 ---------------------------------------
    1   -1874.9957267540      3.43e-02  
    2   -1866.7360787819      3.91e-03  
    3   -1866.3814784023      5.74e-03  
    4   -1867.1333238274      7.83e-04  
    5   -1867.1475986435      3.12e-04  
    6   -1867.1497364803      1.12e-04  
    7   -1867.1500312033      3.18e-05  
    8   -1867.1500612830      9.86e-06  Convergence criterion met
 ---------------------------------------
 SCF time:   CPU 416.69s  wall 52.00s 
 SCF   energy in the final basis set =    -1867.1500612830
 Total energy in the final basis set =    -1867.1500612830
 Exchange:     0.5400 Hartree-Fock + 1.0000 M06-2X
 Correlation:  1.0000 M06-2X
 Using SG-3 standard quadrature grid
 
 SM12 calculation using Merz-Singh-Kollman charges
 Citation of the SM12 model:
 Marenich, A.V.; Cramer, C.J.; Truhlar, D.G.
 J. Chem. Theory Comput. 2013, 9, 609-612.
 iSolventCode=           1
 Solvent: water                                                           
 
  Building new vdw surfaces
         Merz-Kollman ESP Net Atomic Charges

     Atom                 Charge (a.u.)
  ----------------------------------------
      1 C                     0.071473
      2 C                    -0.195717
      3 Cl                   -0.004429
      4 C                    -0.161964
      5 H                     0.149722
      6 C                     0.414411
      7 C                    -0.131296
      8 C                     0.640482
      9 C                    -0.246463
     10 H                     0.200424
     11 S                     0.981057
     12 O                    -0.498214
     13 O                    -0.485466
     14 N                    -0.788372
     15 H                     0.376776
     16 H                     0.368340
     17 N                    -0.829534
     18 C                     0.413090
     19 N                    -0.312278
     20 C                    -0.573670
     21 H                     0.430419
     22 H                     0.084678
     23 H                     0.147040
     24 H                     0.177873
     25 O                    -0.540766
     26 C                     0.034624
     27 C                     0.387040
     28 C                    -0.602634
     29 C                    -0.367169
     30 H                     0.189554
     31 C                    -0.077706
     32 H                     0.148518
     33 C                    -0.242203
     34 H                     0.170801
     35 C                    -0.156424
     36 H                     0.160834
     37 H                     0.161285
     38 H                     0.151285
     39 H                     0.201062
     40 H                     0.153517
  ----------------------------------------
  Sum of atomic charges =     0.000000

  Related Dipole Moment =    10.0510 (X -2.6343 Y  0.6126 Z -9.6802)


 Charges (in A.U.) from Merz-Kollman fitting 
 -----------------------------------------------
 Center     Atomic                  MZ       
 Number     Number                  Charge
 -----------------------------------------------
    1          6                    0.071473
    2          6                   -0.195717
    3         17                   -0.004429
    4          6                   -0.161964
    5          1                    0.149722
    6          6                    0.414411
    7          6                   -0.131296
    8          6                    0.640482
    9          6                   -0.246463
   10          1                    0.200424
   11         16                    0.981057
   12          8                   -0.498214
   13          8                   -0.485466
   14          7                   -0.788372
   15          1                    0.376776
   16          1                    0.368340
   17          7                   -0.829534
   18          6                    0.413090
   19          7                   -0.312278
   20          6                   -0.573670
   21          1                    0.430419
   22          1                    0.084678
   23          1                    0.147040
   24          1                    0.177873
   25          8                   -0.540766
   26          6                    0.034624
   27          6                    0.387040
   28          6                   -0.602634
   29          6                   -0.367169
   30          1                    0.189554
   31          6                   -0.077706
   32          1                    0.148518
   33          6                   -0.242203
   34          1                    0.170801
   35          6                   -0.156424
   36          1                    0.160834
   37          1                    0.161285
   38          1                    0.151285
   39          1                    0.201062
   40          1                    0.153517
 -----------------------------------------------
 A restricted SCF calculation will be
 performed using Roothaan-Hall, DIIS
 SCF converges when DIIS error is below 1.0e-05
 ---------------------------------------
  Cycle       Energy         DIIS error
 ---------------------------------------
         Merz-Kollman ESP Net Atomic Charges

     Atom                 Charge (a.u.)
  ----------------------------------------
      1 C                     0.054963
      2 C                    -0.207820
      3 Cl                   -0.006792
      4 C                    -0.129939
      5 H                     0.166581
      6 C                     0.414483
      7 C                    -0.107183
      8 C                     0.643968
      9 C                    -0.276129
     10 H                     0.196118
     11 S                     1.030000
     12 O                    -0.554392
     13 O                    -0.543691
     14 N                    -0.786188
     15 H                     0.397350
     16 H                     0.383835
     17 N                    -0.788522
     18 C                     0.391952
     19 N                    -0.291429
     20 C                    -0.544642
     21 H                     0.447037
     22 H                     0.097560
     23 H                     0.136079
     24 H                     0.171033
     25 O                    -0.623232
     26 C                     0.080737
     27 C                     0.360326
     28 C                    -0.589826
     29 C                    -0.378614
     30 H                     0.201886
     31 C                    -0.107616
     32 H                     0.164745
     33 C                    -0.253701
     34 H                     0.184688
     35 C                    -0.187421
     36 H                     0.180080
     37 H                     0.169641
     38 H                     0.157556
     39 H                     0.192158
     40 H                     0.154359
  ----------------------------------------
  Sum of atomic charges =     0.000000

  Related Dipole Moment =    12.9193 (X -4.3613 Y  1.0277 Z -12.1173)


 Charges (in A.U.) from Merz-Kollman fitting 
 -----------------------------------------------
 Center     Atomic                  MZ       
 Number     Number                  Charge
 -----------------------------------------------
    1          6                    0.054963
    2          6                   -0.207820
    3         17                   -0.006792
    4          6                   -0.129939
    5          1                    0.166581
    6          6                    0.414483
    7          6                   -0.107183
    8          6                    0.643968
    9          6                   -0.276129
   10          1                    0.196118
   11         16                    1.030000
   12          8                   -0.554392
   13          8                   -0.543691
   14          7                   -0.786188
   15          1                    0.397350
   16          1                    0.383835
   17          7                   -0.788522
   18          6                    0.391952
   19          7                   -0.291429
   20          6                   -0.544642
   21          1                    0.447037
   22          1                    0.097560
   23          1                    0.136079
   24          1                    0.171033
   25          8                   -0.623232
   26          6                    0.080737
   27          6                    0.360326
   28          6                   -0.589826
   29          6                   -0.378614
   30          1                    0.201886
   31          6                   -0.107616
   32          1                    0.164745
   33          6                   -0.253701
   34          1                    0.184688
   35          6                   -0.187421
   36          1                    0.180080
   37          1                    0.169641
   38          1                    0.157556
   39          1                    0.192158
   40          1                    0.154359
 -----------------------------------------------
    1   -1867.1500617474      3.28e-04  Roothaan Step
 ---------------------------------------
  Cycle       Energy         DIIS error
 ---------------------------------------
         Merz-Kollman ESP Net Atomic Charges

     Atom                 Charge (a.u.)
  ----------------------------------------
      1 C                     0.088853
      2 C                    -0.208688
      3 Cl                   -0.004672
      4 C                    -0.155269
      5 H                     0.177358
      6 C                     0.357060
      7 C                    -0.099144
      8 C                     0.629653
      9 C                    -0.256830
     10 H                     0.192067
     11 S                     0.997891
     12 O                    -0.537909
     13 O                    -0.521809
     14 N                    -0.801119
     15 H                     0.397214
     16 H                     0.383487
     17 N                    -0.770755
     18 C                     0.307368
     19 N                    -0.317966
     20 C                    -0.521127
     21 H                     0.456382
     22 H                     0.116732
     23 H                     0.130632
     24 H                     0.176824
     25 O                    -0.574254
     26 C                     0.098238
     27 C                     0.369408
     28 C                    -0.582949
     29 C                    -0.381875
     30 H                     0.200860
     31 C                    -0.092333
     32 H                     0.159718
     33 C                    -0.251951
     34 H                     0.183340
     35 C                    -0.198482
     36 H                     0.182030
     37 H                     0.175137
     38 H                     0.150031
     39 H                     0.194699
     40 H                     0.152150
  ----------------------------------------
  Sum of atomic charges =     0.000000

  Related Dipole Moment =    12.0908 (X -3.6226 Y  0.9811 Z -11.4935)


 Charges (in A.U.) from Merz-Kollman fitting 
 -----------------------------------------------
 Center     Atomic                  MZ       
 Number     Number                  Charge
 -----------------------------------------------
    1          6                    0.088853
    2          6                   -0.208688
    3         17                   -0.004672
    4          6                   -0.155269
    5          1                    0.177358
    6          6                    0.357060
    7          6                   -0.099144
    8          6                    0.629653
    9          6                   -0.256830
   10          1                    0.192067
   11         16                    0.997891
   12          8                   -0.537909
   13          8                   -0.521809
   14          7                   -0.801119
   15          1                    0.397214
   16          1                    0.383487
   17          7                   -0.770755
   18          6                    0.307368
   19          7                   -0.317966
   20          6                   -0.521127
   21          1                    0.456382
   22          1                    0.116732
   23          1                    0.130632
   24          1                    0.176824
   25          8                   -0.574254
   26          6                    0.098238
   27          6                    0.369408
   28          6                   -0.582949
   29          6                   -0.381875
   30          1                    0.200860
   31          6                   -0.092333
   32          1                    0.159718
   33          6                   -0.251951
   34          1                    0.183340
   35          6                   -0.198482
   36          1                    0.182030
   37          1                    0.175137
   38          1                    0.150031
   39          1                    0.194699
   40          1                    0.152150
 -----------------------------------------------
    1   -1867.1388471695      2.67e-04  
         Merz-Kollman ESP Net Atomic Charges

     Atom                 Charge (a.u.)
  ----------------------------------------
      1 C                     0.070624
      2 C                    -0.208881
      3 Cl                   -0.006226
      4 C                    -0.148430
      5 H                     0.174725
      6 C                     0.386704
      7 C                    -0.096072
      8 C                     0.641578
      9 C                    -0.271021
     10 H                     0.194603
     11 S                     1.030467
     12 O                    -0.554855
     13 O                    -0.541396
     14 N                    -0.793572
     15 H                     0.397063
     16 H                     0.383048
     17 N                    -0.771883
     18 C                     0.333331
     19 N                    -0.291107
     20 C                    -0.530108
     21 H                     0.452004
     22 H                     0.109919
     23 H                     0.132234
     24 H                     0.175166
     25 O                    -0.615297
     26 C                     0.099339
     27 C                     0.364632
     28 C                    -0.585789
     29 C                    -0.383213
     30 H                     0.202128
     31 C                    -0.101593
     32 H                     0.162779
     33 C                    -0.254667
     34 H                     0.184715
     35 C                    -0.197208
     36 H                     0.182291
     37 H                     0.174184
     38 H                     0.152616
     39 H                     0.193436
     40 H                     0.153728
  ----------------------------------------
  Sum of atomic charges =     0.000000

  Related Dipole Moment =    12.7622 (X -4.0968 Y  1.0623 Z -12.0400)


 Charges (in A.U.) from Merz-Kollman fitting 
 -----------------------------------------------
 Center     Atomic                  MZ       
 Number     Number                  Charge
 -----------------------------------------------
    1          6                    0.070624
    2          6                   -0.208881
    3         17                   -0.006226
    4          6                   -0.148430
    5          1                    0.174725
    6          6                    0.386704
    7          6                   -0.096072
    8          6                    0.641578
    9          6                   -0.271021
   10          1                    0.194603
   11         16                    1.030467
   12          8                   -0.554855
   13          8                   -0.541396
   14          7                   -0.793572
   15          1                    0.397063
   16          1                    0.383048
   17          7                   -0.771883
   18          6                    0.333331
   19          7                   -0.291107
   20          6                   -0.530108
   21          1                    0.452004
   22          1                    0.109919
   23          1                    0.132234
   24          1                    0.175166
   25          8                   -0.615297
   26          6                    0.099339
   27          6                    0.364632
   28          6                   -0.585789
   29          6                   -0.383213
   30          1                    0.202128
   31          6                   -0.101593
   32          1                    0.162779
   33          6                   -0.254667
   34          1                    0.184715
   35          6                   -0.197208
   36          1                    0.182291
   37          1                    0.174184
   38          1                    0.152616
   39          1                    0.193436
   40          1                    0.153728
 -----------------------------------------------
    2   -1867.1410208411      3.40e-04  
         Merz-Kollman ESP Net Atomic Charges

     Atom                 Charge (a.u.)
  ----------------------------------------
      1 C                     0.069348
      2 C                    -0.208193
      3 Cl                   -0.006475
      4 C                    -0.145137
      5 H                     0.174755
      6 C                     0.386175
      7 C                    -0.097092
      8 C                     0.635178
      9 C                    -0.270279
     10 H                     0.194600
     11 S                     1.027752
     12 O                    -0.555213
     13 O                    -0.541610
     14 N                    -0.793653
     15 H                     0.397807
     16 H                     0.383606
     17 N                    -0.769482
     18 C                     0.331099
     19 N                    -0.295035
     20 C                    -0.527259
     21 H                     0.452767
     22 H                     0.111192
     23 H                     0.131806
     24 H                     0.174428
     25 O                    -0.609496
     26 C                     0.096775
     27 C                     0.363391
     28 C                    -0.584284
     29 C                    -0.382059
     30 H                     0.202424
     31 C                    -0.102280
     32 H                     0.163325
     33 C                    -0.254379
     34 H                     0.185193
     35 C                    -0.197073
     36 H                     0.183018
     37 H                     0.174844
     38 H                     0.152764
     39 H                     0.193559
     40 H                     0.153196
  ----------------------------------------
  Sum of atomic charges =     0.000000

  Related Dipole Moment =    12.8305 (X -4.1158 Y  1.0717 Z -12.1051)


 Charges (in A.U.) from Merz-Kollman fitting 
 -----------------------------------------------
 Center     Atomic                  MZ       
 Number     Number                  Charge
 -----------------------------------------------
    1          6                    0.069348
    2          6                   -0.208193
    3         17                   -0.006475
    4          6                   -0.145137
    5          1                    0.174755
    6          6                    0.386175
    7          6                   -0.097092
    8          6                    0.635178
    9          6                   -0.270279
   10          1                    0.194600
   11         16                    1.027752
   12          8                   -0.555213
   13          8                   -0.541610
   14          7                   -0.793653
   15          1                    0.397807
   16          1                    0.383606
   17          7                   -0.769482
   18          6                    0.331099
   19          7                   -0.295035
   20          6                   -0.527259
   21          1                    0.452767
   22          1                    0.111192
   23          1                    0.131806
   24          1                    0.174428
   25          8                   -0.609496
   26          6                    0.096775
   27          6                    0.363391
   28          6                   -0.584284
   29          6                   -0.382059
   30          1                    0.202424
   31          6                   -0.102280
   32          1                    0.163325
   33          6                   -0.254379
   34          1                    0.185193
   35          6                   -0.197073
   36          1                    0.183018
   37          1                    0.174844
   38          1                    0.152764
   39          1                    0.193559
   40          1                    0.153196
 -----------------------------------------------
    3   -1867.1401160150      4.21e-05  
         Merz-Kollman ESP Net Atomic Charges

     Atom                 Charge (a.u.)
  ----------------------------------------
      1 C                     0.070352
      2 C                    -0.208544
      3 Cl                   -0.006193
      4 C                    -0.147568
      5 H                     0.175588
      6 C                     0.383984
      7 C                    -0.094988
      8 C                     0.636159
      9 C                    -0.270167
     10 H                     0.194598
     11 S                     1.026798
     12 O                    -0.554790
     13 O                    -0.541115
     14 N                    -0.794516
     15 H                     0.397878
     16 H                     0.383695
     17 N                    -0.768157
     18 C                     0.327564
     19 N                    -0.292795
     20 C                    -0.527166
     21 H                     0.453052
     22 H                     0.111899
     23 H                     0.131898
     24 H                     0.174831
     25 O                    -0.611956
     26 C                     0.099771
     27 C                     0.363087
     28 C                    -0.584316
     29 C                    -0.382630
     30 H                     0.202505
     31 C                    -0.102307
     32 H                     0.163306
     33 C                    -0.254699
     34 H                     0.185266
     35 C                    -0.198396
     36 H                     0.183245
     37 H                     0.175296
     38 H                     0.152486
     39 H                     0.193682
     40 H                     0.153362
  ----------------------------------------
  Sum of atomic charges =     0.000000

  Related Dipole Moment =    12.8438 (X -4.1048 Y  1.0863 Z -12.1217)


 Charges (in A.U.) from Merz-Kollman fitting 
 -----------------------------------------------
 Center     Atomic                  MZ       
 Number     Number                  Charge
 -----------------------------------------------
    1          6                    0.070352
    2          6                   -0.208544
    3         17                   -0.006193
    4          6                   -0.147568
    5          1                    0.175588
    6          6                    0.383984
    7          6                   -0.094988
    8          6                    0.636159
    9          6                   -0.270167
   10          1                    0.194598
   11         16                    1.026798
   12          8                   -0.554790
   13          8                   -0.541115
   14          7                   -0.794516
   15          1                    0.397878
   16          1                    0.383695
   17          7                   -0.768157
   18          6                    0.327564
   19          7                   -0.292795
   20          6                   -0.527166
   21          1                    0.453052
   22          1                    0.111899
   23          1                    0.131898
   24          1                    0.174831
   25          8                   -0.611956
   26          6                    0.099771
   27          6                    0.363087
   28          6                   -0.584316
   29          6                   -0.382630
   30          1                    0.202505
   31          6                   -0.102307
   32          1                    0.163306
   33          6                   -0.254699
   34          1                    0.185266
   35          6                   -0.198396
   36          1                    0.183245
   37          1                    0.175296
   38          1                    0.152486
   39          1                    0.193682
   40          1                    0.153362
 -----------------------------------------------
    4   -1867.1398468779      2.04e-05  
    5   -1867.1397251708      5.67e-06  Convergence criterion met
 ---------------------------------------
 SCF time:   CPU 360.80s  wall 47.00s 
(0)  E-EN(g) gas-phase elect-nuc energy                -1867.150061283 a.u.
(1)  E-EN(liq) elect-nuc energy of solute              -1867.139725171 a.u.
(2)  G-P(liq) polarization free energy of solvation           -30.3615 kcal/mol
(3)  G-ENP(liq) elect-nuc-pol free energy of system    -1867.188109225 a.u.
(4)  G-CDS(liq) cavity-dispersion-solvent structure 
     free energy                                                1.3915 kcal/mol
(5)  G-P-CDS(liq) = G-P(liq) + G-CDS(liq) = (2) + (4)         -28.9699 kcal/mol
(6)  G-S(liq) free energy of system = (1) + (5)        -1867.185891672 a.u.
(7)  DeltaE-EN(liq) elect-nuc reorganization
     energy of solute molecule (7) = (1) - (0)                  6.4860 kcal/mol
(8)  DeltaG-ENP(liq) elect-nuc-pol free energy
     of solvation (8) = (3) - (0)                             -23.8754 kcal/mol
(9)  DeltaG-S(liq) free energy of  solvation
     (9) = (6) - (0)                                          -22.4839 kcal/mol
 SCF   energy in the final basis set =    -1867.1858916722
 Total energy in the final basis set =    -1867.1858916722
 
 --------------------------------------------------------------
 
                    Orbital Energies (a.u.)
 --------------------------------------------------------------
 
 Alpha MOs
 -- Occupied --
******** -90.1802 -19.6596 -19.6580 -19.6270 -14.8162 -14.8079 -14.8049
-10.6767 -10.6583 -10.6457 -10.6377 -10.6106 -10.6049 -10.5971 -10.5881
-10.5852 -10.5769 -10.5682 -10.5653 -10.5643 -10.5627 -10.5474 -10.5456
 -9.8455  -8.4934  -7.5698  -7.5633  -7.5628  -6.4157  -6.4152  -6.4145
 -1.2611  -1.1783  -1.1463  -1.1119  -1.0553  -1.0387  -1.0222  -0.9696
 -0.9653  -0.9015  -0.8848  -0.8794  -0.8568  -0.8433  -0.7911  -0.7770
 -0.7532  -0.7425  -0.7226  -0.7018  -0.6867  -0.6627  -0.6392  -0.6354
 -0.6207  -0.6116  -0.5928  -0.5769  -0.5727  -0.5601  -0.5535  -0.5465
 -0.5381  -0.5360  -0.5300  -0.5190  -0.5074  -0.5014  -0.4993  -0.4907
 -0.4865  -0.4850  -0.4683  -0.4575  -0.4456  -0.4428  -0.4409  -0.4373
 -0.4330  -0.4228  -0.4191  -0.4148  -0.4143  -0.4094  -0.3980  -0.3889
 -0.3786  -0.3538  -0.3449  -0.3308  -0.3120  -0.3058  -0.2839
 -- Virtual --
 -0.0388  -0.0154  -0.0064   0.0014   0.0066   0.0104   0.0115   0.0206
  0.0217   0.0220   0.0280   0.0335   0.0398   0.0450   0.0467   0.0496
  0.0537   0.0568   0.0615   0.0647   0.0650   0.0760   0.0794   0.0811
  0.0820   0.0859   0.0891   0.0939   0.0967   0.1011   0.1021   0.1080
  0.1122   0.1184   0.1192   0.1228   0.1277   0.1307   0.1352   0.1386
  0.1419   0.1429   0.1462   0.1474   0.1506   0.1534   0.1567   0.1574
  0.1616   0.1682   0.1703   0.1728   0.1776   0.1803   0.1833   0.1863
  0.1896   0.1918   0.1928   0.1983   0.1997   0.2051   0.2088   0.2098
  0.2133   0.2166   0.2198   0.2226   0.2250   0.2257   0.2281   0.2317
  0.2334   0.2377   0.2384   0.2420   0.2470   0.2521   0.2540   0.2563
  0.2606   0.2618   0.2664   0.2697   0.2741   0.2758   0.2833   0.2846
  0.2882   0.2897   0.2941   0.2978   0.3004   0.3054   0.3099   0.3111
  0.3140   0.3200   0.3217   0.3259   0.3284   0.3313   0.3338   0.3364
  0.3409   0.3416   0.3473   0.3534   0.3577   0.3634   0.3646   0.3756
  0.3768   0.3783   0.3838   0.3860   0.3942   0.4047   0.4089   0.4172
  0.4194   0.4266   0.4380   0.4382   0.4495   0.4524   0.4612   0.4646
  0.4730   0.4837   0.4910   0.5013   0.5114   0.5244   0.5357   0.5420
  0.5674   0.5939   0.6009   0.6227   0.6249   0.6385   0.6520   0.6637
  0.6695   0.6789   0.6968   0.7097   0.7144   0.7187   0.7261   0.7381
  0.7434   0.7457   0.7529   0.7560   0.7593   0.7723   0.7782   0.7793
  0.7877   0.7921   0.7944   0.7985   0.8056   0.8125   0.8153   0.8292
  0.8419   0.8502   0.8613   0.8672   0.8709   0.8740   0.8834   0.8909
  0.8972   0.9038   0.9151   0.9277   0.9355   0.9393   0.9447   0.9541
  0.9593   0.9698   0.9738   0.9833   0.9869   0.9994   1.0115   1.0162
  1.0223   1.0361   1.0396   1.0450   1.0516   1.0578   1.0684   1.0739
  1.0771   1.0828   1.0876   1.1027   1.1088   1.1160   1.1187   1.1343
  1.1397   1.1435   1.1462   1.1521   1.1590   1.1675   1.1733   1.1832
  1.1900   1.1961   1.2046   1.2086   1.2160   1.2306   1.2421   1.2462
  1.2616   1.2645   1.2782   1.2878   1.2901   1.3064   1.3187   1.3266
  1.3323   1.3459   1.3474   1.3540   1.3661   1.3744   1.3850   1.3867
  1.3931   1.4012   1.4079   1.4107   1.4268   1.4383   1.4542   1.4555
  1.4654   1.4728   1.4797   1.4925   1.4949   1.5080   1.5116   1.5219
  1.5317   1.5398   1.5443   1.5581   1.5688   1.5756   1.6018   1.6092
  1.6289   1.6333   1.6619   1.6905   1.7238   1.7467   1.7569   1.7712
  1.7935   1.8017   1.8072   1.8179   1.8250   1.8355   1.8459   1.8534
  1.8584   1.8689   1.8839   1.8977   1.9080   1.9130   1.9181   1.9334
  1.9409   1.9470   1.9491   1.9586   1.9718   1.9897   2.0013   2.0095
  2.0175   2.0238   2.0286   2.0415   2.0487   2.0676   2.0792   2.0947
  2.1254   2.1281   2.1347   2.1526   2.1552   2.1734   2.1779   2.1906
  2.1947   2.2058   2.2095   2.2229   2.2398   2.2459   2.2601   2.2609
  2.2882   2.2996   2.3075   2.3093   2.3381   2.3398   2.3528   2.3538
  2.3669   2.3733   2.3983   2.4346   2.4422   2.4442   2.4734   2.4827
  2.4974   2.5027   2.5454   2.5496   2.5681   2.5919   2.6059   2.6300
  2.6335   2.6603   2.6859   2.6924   2.7037   2.7340   2.7403   2.7614
  2.7727   2.7779   2.8132   2.8243   2.8323   2.8507   2.8730   2.8892
  2.9114   2.9324   2.9467   2.9842   3.0091   3.0807   3.1031   3.1886
  3.2347   3.3298   3.4010   3.4335   3.9079   4.0624   4.2308   4.2565
  4.2806   4.2848   4.3140   4.3210   4.3262   4.3533   4.3860   4.3893
  4.4266   4.4326   4.4527   4.4819   4.4965   4.5036   4.5493   4.6071
  4.6755   4.7859   4.7954   4.9276
 --------------------------------------------------------------
 
          Ground-State Mulliken Net Atomic Charges

     Atom                 Charge (a.u.)
  ----------------------------------------
      1 C                    -3.550299
      2 C                     0.608168
      3 Cl                    0.280036
      4 C                     0.690743
      5 H                     0.298528
      6 C                     0.780590
      7 C                     0.905716
      8 C                    -0.320261
      9 C                    -0.108208
     10 H                     0.287165
     11 S                     1.097116
     12 O                    -0.788869
     13 O                    -0.612089
     14 N                    -0.846026
     15 H                     0.512180
     16 H                     0.493261
     17 N                    -0.272636
     18 C                     0.639165
     19 N                    -0.085487
     20 C                    -0.460037
     21 H                     0.518925
     22 H                     0.282503
     23 H                     0.251203
     24 H                     0.249434
     25 O                    -0.763465
     26 C                    -0.525010
     27 C                     0.139059
     28 C                    -0.624424
     29 C                    -0.391827
     30 H                     0.247853
     31 C                    -0.384484
     32 H                     0.257278
     33 C                    -0.448095
     34 H                     0.260151
     35 C                     0.085137
     36 H                     0.279242
     37 H                     0.259729
     38 H                     0.244255
     39 H                     0.258715
     40 H                     0.254992
  ----------------------------------------
  Sum of atomic charges =    -0.000076

         Merz-Kollman ESP Net Atomic Charges

     Atom                 Charge (a.u.)
  ----------------------------------------
      1 C                     0.070094
      2 C                    -0.207991
      3 Cl                   -0.006409
      4 C                    -0.148104
      5 H                     0.175636
      6 C                     0.384275
      7 C                    -0.095331
      8 C                     0.636302
      9 C                    -0.270235
     10 H                     0.194593
     11 S                     1.028667
     12 O                    -0.555531
     13 O                    -0.541836
     14 N                    -0.794549
     15 H                     0.397767
     16 H                     0.383592
     17 N                    -0.767386
     18 C                     0.325848
     19 N                    -0.292781
     20 C                    -0.526938
     21 H                     0.453033
     22 H                     0.112215
     23 H                     0.131839
     24 H                     0.174955
     25 O                    -0.611818
     26 C                     0.099723
     27 C                     0.363276
     28 C                    -0.584171
     29 C                    -0.382618
     30 H                     0.202449
     31 C                    -0.102015
     32 H                     0.163183
     33 C                    -0.254647
     34 H                     0.185199
     35 C                    -0.198319
     36 H                     0.183215
     37 H                     0.175459
     38 H                     0.152352
     39 H                     0.193708
     40 H                     0.153298
  ----------------------------------------
  Sum of atomic charges =     0.000000

  Related Dipole Moment =    12.8471 (X -4.1022 Y  1.0842 Z -12.1262)

 -----------------------------------------------------------------
                    Cartesian Multipole Moments
 -----------------------------------------------------------------
    Charge (ESU x 10^10)
                -0.0004
    Dipole Moment (Debye)
         X      -4.1345      Y       1.0592      Z     -12.0100
       Tot      12.7458
    Quadrupole Moments (Debye-Ang)
        XX    -138.3661     XY      11.7619     YY    -153.6131
        XZ       9.6996     YZ     -20.2701     ZZ     -96.1616
    Octopole Moments (Debye-Ang^2)
       XXX     -96.4271    XXY     -28.0814    XYY     -44.1296
       YYY    -103.5195    XXZ     428.1461    XYZ      20.7726
       YYZ     479.7163    XZZ     -38.0313    YZZ      19.5818
       ZZZ    1070.5114
    Hexadecapole Moments (Debye-Ang^3)
      XXXX   -5710.9359   XXXY     472.9650   XXYY   -1238.5773
      XYYY     451.0536   YYYY   -1035.9043   XXXZ    2393.4961
      XXYZ     -39.5389   XYYZ     956.4831   YYYZ      42.5177
      XXZZ   -3390.7812   XYZZ    -100.9562   YYZZ   -2890.0328
      XZZZ    2670.5431   YZZZ     115.8653   ZZZZ  -14552.4593
 -----------------------------------------------------------------
 Total job time:  102.58s(wall), 785.16s(cpu) 
 Thu Jun 30 13:23:40 2022

        *************************************************************
        *                                                           *
        *  Thank you very much for using Q-Chem.  Have a nice day.  *
        *                                                           *
        *************************************************************


