                  Welcome to Q-Chem
     A Quantum Leap Into The Future Of Chemistry


 Q-Chem 5.4 (devel), Q-Chem, Inc., Pleasanton, CA (2021)

 E. Epifanovsky,  A. T. B. Gilbert,  Xintian Feng,  Joonho Lee,  Yuezhi Mao,  
 N. Mardirossian,  P. Pokhilko,  A. White,  M. Wormit,  M. P. Coons,  
 A. L. Dempwolff,  Zhengting Gan,  D. Hait,  P. R. Horn,  L. D. Jacobson,  
 I. Kaliman,  J. Kussmann,  A. W. Lange,  Ka Un Lao,  D. S. Levine,  Jie Liu,  
 S. C. McKenzie,  A. F. Morrison,  K. Nanda,  F. Plasser,  D. R. Rehn,  
 M. L. Vidal,  Zhi-Qiang You,  Ying Zhu,  B. Alam,  B. Albrecht,  
 A. Aldossary,  E. Alguire,  J. H. Andersen,  D. Barton,  K. Begam,  A. Behn,  
 Y. A. Bernard,  E. J. Berquist,  H. Burton,  A. Carreras,  K. Carter-Fenk,  
 R. Chakraborty,  A. D. Chien,  K. D. Closser,  V. Cofer-Shabica,  
 S. Dasgupta,  Jia Deng,  M. de Wergifosse,  M. Diedenhofen,  Hainam Do,  
 S. Ehlert,  Po-Tung Fang,  S. Fatehi,  Qingguo Feng,  T. Friedhoff,  
 J. Gayvert,  Qinghui Ge,  G. Gidofalvi,  M. Goldey,  J. Gomes,  
 C. Gonzalez-Espinoza,  S. Gulania,  A. Gunina,  M. W. D. Hanson-Heine,  
 P. H. P. Harbach,  A. W. Hauser,  M. F. Herbst,  M. Hernandez Vera,  
 M. Hodecker,  Z. C. Holden,  S. Houck,  Xunkun Huang,  Kerwin Hui,  
 B. C. Huynh,  M. Ivanov,  Hyunjun Ji,  Hanjie Jiang,  B. Kaduk,  S. Kaehler,  
 K. Khistyaev,  Jaehoon Kim,  P. Klunzinger,  Z. Koczor-Benda,  
 Joong Hoon Koh,  D. Kosenkov,  L. Koulias,  T. Kowalczyk,  C. M. Krauter,  
 K. Kue,  A. Kunitsa,  T. Kus,  A. Landau,  K. V. Lawler,  D. Lefrancois,  
 S. Lehtola,  Rain Li,  Yi-Pei Li,  Jiashu Liang,  M. Liebenthal,  
 Hung-Hsuan Lin,  You-Sheng Lin,  Fenglai Liu,  Kuan-Yu Liu,  
 M. Loipersberger,  A. Luenser,  A. Manjanath,  P. Manohar,  E. Mansoor,  
 S. F. Manzer,  Shan-Ping Mao,  A. V. Marenich,  T. Markovich,  S. Mason,  
 S. A. Maurer,  P. F. McLaughlin,  M. F. S. J. Menger,  J.-M. Mewes,  
 S. A. Mewes,  P. Morgante,  J. W. Mullinax,  K. J. Oosterbaan,  G. Paran,  
 Alexander C. Paul,  Suranjan K. Paul,  F. Pavosevic,  Zheng Pei,  S. Prager,  
 E. I. Proynov,  E. Ramos,  B. Rana,  A. E. Rask,  A. Rettig,  R. M. Richard,  
 F. Rob,  E. Rossomme,  T. Scheele,  M. Scheurer,  M. Schneider,  
 N. Sergueev,  S. M. Sharada,  W. Skomorowski,  D. W. Small,  C. J. Stein,  
 Yu-Chuan Su,  E. J. Sundstrom,  Zhen Tao,  J. Thirman,  T. Tsuchimochi,  
 N. M. Tubman,  S. P. Veccham,  O. Vydrov,  J. Wenzel,  J. Witte,  A. Yamada,  
 Kun Yao,  S. Yeganeh,  S. R. Yost,  A. Zech,  Igor Ying Zhang,  Xing Zhang,  
 Yu Zhang,  D. Zuev,  A. Aspuru-Guzik,  A. T. Bell,  N. A. Besley,  
 K. B. Bravaya,  B. R. Brooks,  D. Casanova,  Jeng-Da Chai,  S. Coriani,  
 C. J. Cramer,  A. E. DePrince, III,  R. A. DiStasio Jr.,  A. Dreuw,  
 B. D. Dunietz,  T. R. Furlani,  W. A. Goddard III,  S. Grimme,  
 S. Hammes-Schiffer,  T. Head-Gordon,  W. J. Hehre,  Chao-Ping Hsu,  
 T.-C. Jagau,  Yousung Jung,  A. Klamt,  Jing Kong,  D. S. Lambrecht,  
 WanZhen Liang,  N. J. Mayhall,  C. W. McCurdy,  J. B. Neaton,  
 C. Ochsenfeld,  J. A. Parkhill,  R. Peverati,  V. A. Rassolov,  Yihan Shao,  
 L. V. Slipchenko,  T. Stauch,  R. P. Steele,  J. E. Subotnik,  
 A. J. W. Thom,  A. Tkatchenko,  D. G. Truhlar,  T. Van Voorhis,  
 T. A. Wesolowski,  K. B. Whaley,  H. L. Woodcock III,  P. M. Zimmerman,  
 S. Faraji,  P. M. W. Gill,  M. Head-Gordon,  J. M. Herbert,  A. I. Krylov

 Additional authors for Version 5.4.1: 
 S. Kotaru,  Shaozhi Li,  Xiangyuan Li,  F. Matz,  A. Molle,  Haisheng Ren,  
 Yingli Su,  Hung-Yi Tsai,  C. Utku,  Fang Wang

 Contributors to earlier versions of Q-Chem not listed above: 
 R. D. Adamson,  B. Austin,  R. Baer,  J. Baker,  G. J. O. Beran,  
 K. Brandhorst,  S. T. Brown,  E. F. C. Byrd,  A. K. Chakraborty,  
 G. K. L. Chan,  Chun-Min Chang,  Yunqing Chen,  C.-L. Cheng,  
 Siu Hung Chien,  D. M. Chipman,  D. L. Crittenden,  H. Dachsel,  
 R. J. Doerksen,  A. D. Dutoi,  R. G. Edgar,  J. Fosso-Tande,  
 L. Fusti-Molnar,  D. Ghosh,  A. Ghysels,  A. Golubeva-Zadorozhnaya,  
 J. Gonthier,  M. S. Gordon,  S. R. Gwaltney,  G. Hawkins,  J. E. Herr,  
 A. Heyden,  S. Hirata,  E. G. Hohenstein,  G. Kedziora,  F. J. Keil,  
 C. Kelley,  Jihan Kim,  R. A. King,  R. Z. Khaliullin,  P. P. Korambath,  
 W. Kurlancheek,  A. Laurent,  A. M. Lee,  M. S. Lee,  S. V. Levchenko,  
 Ching Yeh Lin,  D. Liotard,  E. Livshits,  R. C. Lochan,  I. Lotan,  
 L. A. Martinez-Martinez,  P. E. Maslen,  N. Nair,  D. P. O'Neill,  
 D. Neuhauser,  E. Neuscamman,  C. M. Oana,  R. Olivares-Amaya,  R. Olson,  
 T. M. Perrine,  B. Peters,  P. A. Pieniazek,  A. Prociuk,  Y. M. Rhee,  
 J. Ritchie,  M. A. Rohrdanz,  E. Rosta,  N. J. Russ,  H. F. Schaefer III,  
 M. W. Schmidt,  N. E. Schultz,  S. Sharma,  N. Shenvi,  C. D. Sherrill,  
 A. C. Simmonett,  A. Sodt,  T. Stein,  D. Stuck,  K. S. Thanthiriwatte,  
 V. Vanovschi,  L. Vogt,  Tao Wang,  A. Warshel,  M. A. Watson,  
 C. F. Williams,  Q. Wu,  X. Xu,  Jun Yang,  W. Zhang,  Yan Zhao

 Please cite Q-Chem as follows:
 Y. Shao et al., Mol. Phys. 113, 184-215 (2015)
 DOI: 10.1080/00268976.2014.952696

 Q-Chem 5.4.1 for Intel X86 EM64T Linux

 Parts of Q-Chem use Armadillo 9.800.1 (Horizon Scraper).
 http://arma.sourceforge.net/

 Q-Chem begins on Thu Jun 30 00:02:12 2022  

 Host: gadi-cpu-clx-0317.gadi.nci.org.au
0

     Scratch files written to /jobfs/48850754.gadi-pbs/qchem3336007//
 Processing $rem in /apps/qchem/5.4.1/config/preferences:
 Processing $rem in /home/561/yj5695/.qchemrc:
 Symmetry turned off for PCM/SM12/SMD calculation
 Method-specific promolecule density matrix will be built for SM12 calculation

 Checking the input file for inconsistencies... 	...done.

--------------------------------------------------------------
User input:
--------------------------------------------------------------
$molecule
0  1
C -1.3904425946  0.6650254386 -0.8633644422
C -2.5313379412  0.7059550854 -1.6909600459
Cl -4.1171909477  0.9371096394 -1.0170929266
C -2.4348659474  0.583165307 -3.0578726857
H -3.3234056064  0.6297604259 -3.679819172
C -1.1750914085  0.3952089147 -3.6705288348
C -0.0481226782  0.3485900169 -2.8278423781
S  1.5389741993  0.0749829534 -3.5292569412
C -0.1463405962  0.4915219402 -1.4512509079
H  0.7461517719  0.4687759577 -0.8324360136
S -1.4557390164  0.8060652788  0.9083010884
O -2.417664213 -0.1647632233  1.4243469365
O -0.0713402727  0.7541737839  1.3715661303
N -2.0238542562  2.2925236862  1.3273925747
H -3.0102754262  2.423685597  1.0994995693
H -1.4494298743  3.0493020185  0.9512575201
N -1.0746896697  0.3101368286 -5.0153281683
C  0.1506982861  0.0053892474 -5.726855107
N  1.2824462736  0.6990431859 -5.0718713878
O  2.5324616743  0.9124052634 -2.8589229795
O  1.8246467157 -1.364876785 -3.5842028219
C  0.000092977  0.3944827128 -7.1863919278
Cl -0.2013954813  2.1619312593 -7.4296332011
H -1.9375943988  0.2788990023 -5.5499815367
H  0.3372151501 -1.0817964485 -5.7359938641
H -0.8928486423 -0.0925795582 -7.5814629132
H  0.8619428639  0.0711853037 -7.7674274774
C  2.5352127497  0.6366141337 -5.8593821183
H  2.4468652284  1.3307561473 -6.6953827656
H  2.7360644107 -0.3749743012 -6.2291960626
H  3.3630536704  0.9711851882 -5.2333611399
$end

$rem
jobtype sp
exchange M062X
basis 6-31+G*
SMX_GAS_PHASE = TRUE
solvent_method sm12
$end

$smx
solvent water
charges mk
$end
--------------------------------------------------------------
 ----------------------------------------------------------------
             Standard Nuclear Orientation (Angstroms)
    I     Atom           X                Y                Z
 ----------------------------------------------------------------
    1      C      -1.3904425946     0.6650254386    -0.8633644422
    2      C      -2.5313379412     0.7059550854    -1.6909600459
    3      Cl     -4.1171909477     0.9371096394    -1.0170929266
    4      C      -2.4348659474     0.5831653070    -3.0578726857
    5      H      -3.3234056064     0.6297604259    -3.6798191720
    6      C      -1.1750914085     0.3952089147    -3.6705288348
    7      C      -0.0481226782     0.3485900169    -2.8278423781
    8      S       1.5389741993     0.0749829534    -3.5292569412
    9      C      -0.1463405962     0.4915219402    -1.4512509079
   10      H       0.7461517719     0.4687759577    -0.8324360136
   11      S      -1.4557390164     0.8060652788     0.9083010884
   12      O      -2.4176642130    -0.1647632233     1.4243469365
   13      O      -0.0713402727     0.7541737839     1.3715661303
   14      N      -2.0238542562     2.2925236862     1.3273925747
   15      H      -3.0102754262     2.4236855970     1.0994995693
   16      H      -1.4494298743     3.0493020185     0.9512575201
   17      N      -1.0746896697     0.3101368286    -5.0153281683
   18      C       0.1506982861     0.0053892474    -5.7268551070
   19      N       1.2824462736     0.6990431859    -5.0718713878
   20      O       2.5324616743     0.9124052634    -2.8589229795
   21      O       1.8246467157    -1.3648767850    -3.5842028219
   22      C       0.0000929770     0.3944827128    -7.1863919278
   23      Cl     -0.2013954813     2.1619312593    -7.4296332011
   24      H      -1.9375943988     0.2788990023    -5.5499815367
   25      H       0.3372151501    -1.0817964485    -5.7359938641
   26      H      -0.8928486423    -0.0925795582    -7.5814629132
   27      H       0.8619428639     0.0711853037    -7.7674274774
   28      C       2.5352127497     0.6366141337    -5.8593821183
   29      H       2.4468652284     1.3307561473    -6.6953827656
   30      H       2.7360644107    -0.3749743012    -6.2291960626
   31      H       3.3630536704     0.9711851882    -5.2333611399
 ----------------------------------------------------------------
 Nuclear Repulsion Energy =        2330.55985575 hartrees
 There are       92 alpha and       92 beta electrons
 Requested basis set is 6-31+G(d)
 There are 126 shells and 418 basis functions

 Total QAlloc Memory Limit   2000 MB
 Mega-Array Size       188 MB
 MEM_STATIC part       192 MB
 A cutoff of  1.0D-08 yielded   5331 shell pairs
 There are     63156 function pairs
 Smallest overlap matrix eigenvalue = 3.95E-07

 Q-Chem warning in module stvman/mkSTV.C, line 323:

 Overlap eigenvalue is smaller than square root of threshold
 Use THRESH >= 12 to get rid of this warning

 Linear dependence detected in AO basis
 Tighter screening thresholds may be required for diffuse basis sets
 Use S2THRESH > 14 and THRESH = 14 in case of SCF convergence issues
 Number of orthogonalized atomic orbitals = 416
 Maximum deviation from orthogonality = 2.131E-10

 Scale SEOQF with 1.000000e-01/1.000000e-01/1.000000e-02

 Standard Electronic Orientation quadrupole field applied
 Nucleus-field energy     =     0.0000000085 hartrees
 ================ Generating on-the-fly Promolecule Density  ================
Attempting to make child job directory: /jobfs/48850754.gadi-pbs/qchem3336007//Frg1/
Attempting to make child job directory: /jobfs/48850754.gadi-pbs/qchem3336007//Frg2/
Attempting to make child job directory: /jobfs/48850754.gadi-pbs/qchem3336007//Frg3/
Attempting to make child job directory: /jobfs/48850754.gadi-pbs/qchem3336007//Frg4/
Attempting to make child job directory: /jobfs/48850754.gadi-pbs/qchem3336007//Frg5/
Attempting to make child job directory: /jobfs/48850754.gadi-pbs/qchem3336007//Frg6/
Creating input file /jobfs/48850754.gadi-pbs/qchem3336007/Frg1.input
using default PutDataFrgm: nothing
calling putenv with: QCSCRATCH=/jobfs/48850754.gadi-pbs/qchem3336007/ 
Spawning Job For Fragment 0
Done Job For Fragment 0
calling putenv with: QCSCRATCH=/jobfs/48850754.gadi-pbs 
calling putenv with: QCTHREADS=8 
Creating input file /jobfs/48850754.gadi-pbs/qchem3336007/Frg2.input
using default PutDataFrgm: nothing
calling putenv with: QCSCRATCH=/jobfs/48850754.gadi-pbs/qchem3336007/ 
Spawning Job For Fragment 1
Done Job For Fragment 1
calling putenv with: QCSCRATCH=/jobfs/48850754.gadi-pbs 
calling putenv with: QCTHREADS=8 
Creating input file /jobfs/48850754.gadi-pbs/qchem3336007/Frg3.input
using default PutDataFrgm: nothing
calling putenv with: QCSCRATCH=/jobfs/48850754.gadi-pbs/qchem3336007/ 
Spawning Job For Fragment 2
Done Job For Fragment 2
calling putenv with: QCSCRATCH=/jobfs/48850754.gadi-pbs 
calling putenv with: QCTHREADS=8 
Creating input file /jobfs/48850754.gadi-pbs/qchem3336007/Frg4.input
using default PutDataFrgm: nothing
calling putenv with: QCSCRATCH=/jobfs/48850754.gadi-pbs/qchem3336007/ 
Spawning Job For Fragment 3
Done Job For Fragment 3
calling putenv with: QCSCRATCH=/jobfs/48850754.gadi-pbs 
calling putenv with: QCTHREADS=8 
Creating input file /jobfs/48850754.gadi-pbs/qchem3336007/Frg5.input
using default PutDataFrgm: nothing
calling putenv with: QCSCRATCH=/jobfs/48850754.gadi-pbs/qchem3336007/ 
Spawning Job For Fragment 4
Done Job For Fragment 4
calling putenv with: QCSCRATCH=/jobfs/48850754.gadi-pbs 
calling putenv with: QCTHREADS=8 
Creating input file /jobfs/48850754.gadi-pbs/qchem3336007/Frg6.input
using default PutDataFrgm: nothing
calling putenv with: QCSCRATCH=/jobfs/48850754.gadi-pbs/qchem3336007/ 
Spawning Job For Fragment 5
Done Job For Fragment 5
calling putenv with: QCSCRATCH=/jobfs/48850754.gadi-pbs 
calling putenv with: QCTHREADS=8 
 Time for running child jobs:  CPU 0.83 s  wall 2.34 s
 ============= Method Specific Promolecule Density Constructed =============
 Guess from superposition of atomic densities
 Warning:  Energy on first SCF cycle will be non-variational
 SAD guess density has 184.000000 electrons

 -----------------------------------------------------------------------
  General SCF calculation program by
  Eric Jon Sundstrom, Paul Horn, Yuezhi Mao, Dmitri Zuev, Alec White,
  David Stuck, Shaama M.S., Shane Yost, Joonho Lee, David Small,
  Daniel Levine, Susi Lehtola, Hugh Burton, Evgeny Epifanovsky,
  Bang C. Huynh
 -----------------------------------------------------------------------
 Exchange:     0.5400 Hartree-Fock + 1.0000 M06-2X
 Correlation:  1.0000 M06-2X
 Using SG-3 standard quadrature grid
 using 8 threads for integral computing
 -------------------------------------------------------
 OpenMP Integral computing Module                
 Release: version 1.0, May 2013, Q-Chem Inc. Pittsburgh 
 -------------------------------------------------------
 A restricted SCF calculation will be
 performed using DIIS
 SCF converges when DIIS error is below 1.0e-05
 ---------------------------------------
  Cycle       Energy         DIIS error
 ---------------------------------------
    1   -2537.4652647693      3.75e-02  
    2   -2530.4484170131      4.96e-03  
    3   -2530.0362858599      7.30e-03  
    4   -2530.8890278813      7.39e-04  
    5   -2530.8978422324      3.23e-04  
    6   -2530.8997971081      6.79e-05  
    7   -2530.8998714085      2.75e-05  
    8   -2530.8998863439      8.33e-06  Convergence criterion met
 ---------------------------------------
 SCF time:   CPU 260.71s  wall 33.00s 
 SCF   energy in the final basis set =    -2530.8998863439
 Total energy in the final basis set =    -2530.8998863439
 Exchange:     0.5400 Hartree-Fock + 1.0000 M06-2X
 Correlation:  1.0000 M06-2X
 Using SG-3 standard quadrature grid
 
 SM12 calculation using Merz-Singh-Kollman charges
 Citation of the SM12 model:
 Marenich, A.V.; Cramer, C.J.; Truhlar, D.G.
 J. Chem. Theory Comput. 2013, 9, 609-612.
 iSolventCode=           1
 Solvent: water                                                           
 
  Building new vdw surfaces
         Merz-Kollman ESP Net Atomic Charges

     Atom                 Charge (a.u.)
  ----------------------------------------
      1 C                    -0.066383
      2 C                    -0.138446
      3 Cl                    0.002671
      4 C                    -0.178448
      5 H                     0.145411
      6 C                     0.597203
      7 C                    -0.253879
      8 S                     0.968955
      9 C                    -0.102194
     10 H                     0.214935
     11 S                     1.018666
     12 O                    -0.476754
     13 O                    -0.504993
     14 N                    -0.792013
     15 H                     0.370269
     16 H                     0.378758
     17 N                    -1.012724
     18 C                     0.670256
     19 N                    -0.374258
     20 O                    -0.485640
     21 O                    -0.501107
     22 C                    -0.677299
     23 Cl                   -0.033506
     24 H                     0.492728
     25 H                     0.042953
     26 H                     0.266516
     27 H                     0.275559
     28 C                    -0.377631
     29 H                     0.178892
     30 H                     0.131882
     31 H                     0.219622
  ----------------------------------------
  Sum of atomic charges =     0.000000

  Related Dipole Moment =    10.6031 (X -3.7655 Y  2.1654 Z -9.6726)


 Charges (in A.U.) from Merz-Kollman fitting 
 -----------------------------------------------
 Center     Atomic                  MZ       
 Number     Number                  Charge
 -----------------------------------------------
    1          6                   -0.066383
    2          6                   -0.138446
    3         17                    0.002671
    4          6                   -0.178448
    5          1                    0.145411
    6          6                    0.597203
    7          6                   -0.253879
    8         16                    0.968955
    9          6                   -0.102194
   10          1                    0.214935
   11         16                    1.018666
   12          8                   -0.476754
   13          8                   -0.504993
   14          7                   -0.792013
   15          1                    0.370269
   16          1                    0.378758
   17          7                   -1.012724
   18          6                    0.670256
   19          7                   -0.374258
   20          8                   -0.485640
   21          8                   -0.501107
   22          6                   -0.677299
   23         17                   -0.033506
   24          1                    0.492728
   25          1                    0.042953
   26          1                    0.266516
   27          1                    0.275559
   28          6                   -0.377631
   29          1                    0.178892
   30          1                    0.131882
   31          1                    0.219622
 -----------------------------------------------
 A restricted SCF calculation will be
 performed using Roothaan-Hall, DIIS
 SCF converges when DIIS error is below 1.0e-05
 ---------------------------------------
  Cycle       Energy         DIIS error
 ---------------------------------------
         Merz-Kollman ESP Net Atomic Charges

     Atom                 Charge (a.u.)
  ----------------------------------------
      1 C                    -0.093130
      2 C                    -0.137383
      3 Cl                   -0.001624
      4 C                    -0.158878
      5 H                     0.166495
      6 C                     0.641007
      7 C                    -0.283164
      8 S                     1.032530
      9 C                    -0.115153
     10 H                     0.211758
     11 S                     1.065852
     12 O                    -0.534722
     13 O                    -0.559226
     14 N                    -0.789507
     15 H                     0.386212
     16 H                     0.399359
     17 N                    -0.989500
     18 C                     0.646222
     19 N                    -0.382751
     20 O                    -0.548114
     21 O                    -0.556119
     22 C                    -0.598013
     23 Cl                   -0.078329
     24 H                     0.512170
     25 H                     0.051207
     26 H                     0.272687
     27 H                     0.269472
     28 C                    -0.373935
     29 H                     0.192443
     30 H                     0.140869
     31 H                     0.211264
  ----------------------------------------
  Sum of atomic charges =     0.000000

  Related Dipole Moment =    13.6173 (X -5.3097 Y  2.5473 Z -12.2780)


 Charges (in A.U.) from Merz-Kollman fitting 
 -----------------------------------------------
 Center     Atomic                  MZ       
 Number     Number                  Charge
 -----------------------------------------------
    1          6                   -0.093130
    2          6                   -0.137383
    3         17                   -0.001624
    4          6                   -0.158878
    5          1                    0.166495
    6          6                    0.641007
    7          6                   -0.283164
    8         16                    1.032530
    9          6                   -0.115153
   10          1                    0.211758
   11         16                    1.065852
   12          8                   -0.534722
   13          8                   -0.559226
   14          7                   -0.789507
   15          1                    0.386212
   16          1                    0.399359
   17          7                   -0.989500
   18          6                    0.646222
   19          7                   -0.382751
   20          8                   -0.548114
   21          8                   -0.556119
   22          6                   -0.598013
   23         17                   -0.078329
   24          1                    0.512170
   25          1                    0.051207
   26          1                    0.272687
   27          1                    0.269472
   28          6                   -0.373935
   29          1                    0.192443
   30          1                    0.140869
   31          1                    0.211264
 -----------------------------------------------
    1   -2530.8998856716      3.99e-04  Roothaan Step
 ---------------------------------------
  Cycle       Energy         DIIS error
 ---------------------------------------
         Merz-Kollman ESP Net Atomic Charges

     Atom                 Charge (a.u.)
  ----------------------------------------
      1 C                    -0.078060
      2 C                    -0.135649
      3 Cl                    0.003709
      4 C                    -0.209284
      5 H                     0.180749
      6 C                     0.664661
      7 C                    -0.311816
      8 S                     1.049242
      9 C                    -0.078268
     10 H                     0.208214
     11 S                     1.035020
     12 O                    -0.509982
     13 O                    -0.543735
     14 N                    -0.804506
     15 H                     0.385957
     16 H                     0.399466
     17 N                    -1.058700
     18 C                     0.665322
     19 N                    -0.408294
     20 O                    -0.536870
     21 O                    -0.545264
     22 C                    -0.684966
     23 Cl                   -0.045690
     24 H                     0.532230
     25 H                     0.058487
     26 H                     0.296895
     27 H                     0.294544
     28 C                    -0.372809
     29 H                     0.195763
     30 H                     0.139178
     31 H                     0.214455
  ----------------------------------------
  Sum of atomic charges =     0.000000

  Related Dipole Moment =    13.0244 (X -4.8241 Y  2.3533 Z -11.8670)


 Charges (in A.U.) from Merz-Kollman fitting 
 -----------------------------------------------
 Center     Atomic                  MZ       
 Number     Number                  Charge
 -----------------------------------------------
    1          6                   -0.078060
    2          6                   -0.135649
    3         17                    0.003709
    4          6                   -0.209284
    5          1                    0.180749
    6          6                    0.664661
    7          6                   -0.311816
    8         16                    1.049242
    9          6                   -0.078268
   10          1                    0.208214
   11         16                    1.035020
   12          8                   -0.509982
   13          8                   -0.543735
   14          7                   -0.804506
   15          1                    0.385957
   16          1                    0.399466
   17          7                   -1.058700
   18          6                    0.665322
   19          7                   -0.408294
   20          8                   -0.536870
   21          8                   -0.545264
   22          6                   -0.684966
   23         17                   -0.045690
   24          1                    0.532230
   25          1                    0.058487
   26          1                    0.296895
   27          1                    0.294544
   28          6                   -0.372809
   29          1                    0.195763
   30          1                    0.139178
   31          1                    0.214455
 -----------------------------------------------
    1   -2530.8883093487      2.97e-04  
         Merz-Kollman ESP Net Atomic Charges

     Atom                 Charge (a.u.)
  ----------------------------------------
      1 C                    -0.092379
      2 C                    -0.135316
      3 Cl                    0.000271
      4 C                    -0.191980
      5 H                     0.176609
      6 C                     0.670205
      7 C                    -0.308498
      8 S                     1.064199
      9 C                    -0.093136
     10 H                     0.209472
     11 S                     1.068780
     12 O                    -0.531903
     13 O                    -0.561022
     14 N                    -0.796616
     15 H                     0.385552
     16 H                     0.399427
     17 N                    -1.029656
     18 C                     0.655757
     19 N                    -0.387855
     20 O                    -0.554409
     21 O                    -0.562300
     22 C                    -0.645243
     23 Cl                   -0.061829
     24 H                     0.524218
     25 H                     0.054950
     26 H                     0.287435
     27 H                     0.284052
     28 C                    -0.379425
     29 H                     0.196412
     30 H                     0.140982
     31 H                     0.213243
  ----------------------------------------
  Sum of atomic charges =     0.000000

  Related Dipole Moment =    13.6085 (X -5.1343 Y  2.5228 Z -12.3477)


 Charges (in A.U.) from Merz-Kollman fitting 
 -----------------------------------------------
 Center     Atomic                  MZ       
 Number     Number                  Charge
 -----------------------------------------------
    1          6                   -0.092379
    2          6                   -0.135316
    3         17                    0.000271
    4          6                   -0.191980
    5          1                    0.176609
    6          6                    0.670205
    7          6                   -0.308498
    8         16                    1.064199
    9          6                   -0.093136
   10          1                    0.209472
   11         16                    1.068780
   12          8                   -0.531903
   13          8                   -0.561022
   14          7                   -0.796616
   15          1                    0.385552
   16          1                    0.399427
   17          7                   -1.029656
   18          6                    0.655757
   19          7                   -0.387855
   20          8                   -0.554409
   21          8                   -0.562300
   22          6                   -0.645243
   23         17                   -0.061829
   24          1                    0.524218
   25          1                    0.054950
   26          1                    0.287435
   27          1                    0.284052
   28          6                   -0.379425
   29          1                    0.196412
   30          1                    0.140982
   31          1                    0.213243
 -----------------------------------------------
    2   -2530.8905518451      3.42e-04  
         Merz-Kollman ESP Net Atomic Charges

     Atom                 Charge (a.u.)
  ----------------------------------------
      1 C                    -0.092236
      2 C                    -0.134163
      3 Cl                   -0.000000
      4 C                    -0.190118
      5 H                     0.177127
      6 C                     0.671848
      7 C                    -0.312972
      8 S                     1.058384
      9 C                    -0.090637
     10 H                     0.209454
     11 S                     1.061239
     12 O                    -0.529417
     13 O                    -0.559451
     14 N                    -0.797337
     15 H                     0.386208
     16 H                     0.400076
     17 N                    -1.031630
     18 C                     0.657468
     19 N                    -0.395852
     20 O                    -0.551703
     21 O                    -0.559255
     22 C                    -0.641478
     23 Cl                   -0.063150
     24 H                     0.525643
     25 H                     0.055597
     26 H                     0.287683
     27 H                     0.283779
     28 C                    -0.375387
     29 H                     0.196597
     30 H                     0.140825
     31 H                     0.212861
  ----------------------------------------
  Sum of atomic charges =     0.000000

  Related Dipole Moment =    13.6763 (X -5.1589 Y  2.4818 Z -12.4204)


 Charges (in A.U.) from Merz-Kollman fitting 
 -----------------------------------------------
 Center     Atomic                  MZ       
 Number     Number                  Charge
 -----------------------------------------------
    1          6                   -0.092236
    2          6                   -0.134163
    3         17                   -0.000000
    4          6                   -0.190118
    5          1                    0.177127
    6          6                    0.671848
    7          6                   -0.312972
    8         16                    1.058384
    9          6                   -0.090637
   10          1                    0.209454
   11         16                    1.061239
   12          8                   -0.529417
   13          8                   -0.559451
   14          7                   -0.797337
   15          1                    0.386208
   16          1                    0.400076
   17          7                   -1.031630
   18          6                    0.657468
   19          7                   -0.395852
   20          8                   -0.551703
   21          8                   -0.559255
   22          6                   -0.641478
   23         17                   -0.063150
   24          1                    0.525643
   25          1                    0.055597
   26          1                    0.287683
   27          1                    0.283779
   28          6                   -0.375387
   29          1                    0.196597
   30          1                    0.140825
   31          1                    0.212861
 -----------------------------------------------
    3   -2530.8891547071      4.16e-05  
         Merz-Kollman ESP Net Atomic Charges

     Atom                 Charge (a.u.)
  ----------------------------------------
      1 C                    -0.092837
      2 C                    -0.134469
      3 Cl                    0.000359
      4 C                    -0.193525
      5 H                     0.177955
      6 C                     0.673875
      7 C                    -0.313248
      8 S                     1.063429
      9 C                    -0.089564
     10 H                     0.209314
     11 S                     1.063398
     12 O                    -0.530330
     13 O                    -0.560198
     14 N                    -0.797885
     15 H                     0.386203
     16 H                     0.400092
     17 N                    -1.033482
     18 C                     0.657214
     19 N                    -0.393327
     20 O                    -0.553804
     21 O                    -0.561629
     22 C                    -0.645977
     23 Cl                   -0.061676
     24 H                     0.526224
     25 H                     0.056018
     26 H                     0.288906
     27 H                     0.285116
     28 C                    -0.377186
     29 H                     0.196917
     30 H                     0.141008
     31 H                     0.213107
  ----------------------------------------
  Sum of atomic charges =     0.000000

  Related Dipole Moment =    13.6931 (X -5.1450 Y  2.4961 Z -12.4418)


 Charges (in A.U.) from Merz-Kollman fitting 
 -----------------------------------------------
 Center     Atomic                  MZ       
 Number     Number                  Charge
 -----------------------------------------------
    1          6                   -0.092837
    2          6                   -0.134469
    3         17                    0.000359
    4          6                   -0.193525
    5          1                    0.177955
    6          6                    0.673875
    7          6                   -0.313248
    8         16                    1.063429
    9          6                   -0.089564
   10          1                    0.209314
   11         16                    1.063398
   12          8                   -0.530330
   13          8                   -0.560198
   14          7                   -0.797885
   15          1                    0.386203
   16          1                    0.400092
   17          7                   -1.033482
   18          6                    0.657214
   19          7                   -0.393327
   20          8                   -0.553804
   21          8                   -0.561629
   22          6                   -0.645977
   23         17                   -0.061676
   24          1                    0.526224
   25          1                    0.056018
   26          1                    0.288906
   27          1                    0.285116
   28          6                   -0.377186
   29          1                    0.196917
   30          1                    0.141008
   31          1                    0.213107
 -----------------------------------------------
    4   -2530.8888304841      2.25e-05  
    5   -2530.8887303368      5.01e-06  Convergence criterion met
 ---------------------------------------
 SCF time:   CPU 228.99s  wall 29.00s 
(0)  E-EN(g) gas-phase elect-nuc energy                -2530.899886344 a.u.
(1)  E-EN(liq) elect-nuc energy of solute              -2530.888730337 a.u.
(2)  G-P(liq) polarization free energy of solvation           -33.8290 kcal/mol
(3)  G-ENP(liq) elect-nuc-pol free energy of system    -2530.942640318 a.u.
(4)  G-CDS(liq) cavity-dispersion-solvent structure 
     free energy                                                1.7226 kcal/mol
(5)  G-P-CDS(liq) = G-P(liq) + G-CDS(liq) = (2) + (4)         -32.1064 kcal/mol
(6)  G-S(liq) free energy of system = (1) + (5)        -2530.939895177 a.u.
(7)  DeltaE-EN(liq) elect-nuc reorganization
     energy of solute molecule (7) = (1) - (0)                  7.0005 kcal/mol
(8)  DeltaG-ENP(liq) elect-nuc-pol free energy
     of solvation (8) = (3) - (0)                             -26.8285 kcal/mol
(9)  DeltaG-S(liq) free energy of  solvation
     (9) = (6) - (0)                                          -25.1059 kcal/mol
 SCF   energy in the final basis set =    -2530.9398951766
 Total energy in the final basis set =    -2530.9398951766
 
 --------------------------------------------------------------
 
                    Orbital Energies (a.u.)
 --------------------------------------------------------------
 
 Alpha MOs
 -- Occupied --
********-102.6641 -90.1831 -90.1799 -19.6667 -19.6643 -19.6620 -19.6599
-14.8250 -14.8215 -14.8098 -10.6643 -10.6635 -10.6573 -10.6284 -10.6164
-10.6147 -10.6132 -10.5954 -10.5929  -9.8480  -9.8145  -8.4962  -8.4952
 -7.5723  -7.5657  -7.5652  -7.5386  -7.5321  -7.5320  -6.4185  -6.4181
 -6.4174  -6.4173  -6.4167  -6.4162  -1.2653  -1.2639  -1.1490  -1.1482
 -1.1265  -1.0607  -1.0413  -1.0283  -0.9836  -0.9657  -0.9074  -0.8954
 -0.8495  -0.8270  -0.7791  -0.7623  -0.7425  -0.7274  -0.6803  -0.6647
 -0.6433  -0.6360  -0.6227  -0.6111  -0.5999  -0.5904  -0.5750  -0.5615
 -0.5510  -0.5457  -0.5423  -0.5380  -0.5262  -0.5179  -0.5087  -0.4957
 -0.4814  -0.4791  -0.4737  -0.4525  -0.4426  -0.4383  -0.4281  -0.4250
 -0.4180  -0.4159  -0.4118  -0.4054  -0.4005  -0.3924  -0.3830  -0.3753
 -0.3726  -0.3511  -0.3379  -0.2929
 -- Virtual --
 -0.0332  -0.0216  -0.0061   0.0057   0.0208   0.0215   0.0314   0.0347
  0.0380   0.0439   0.0468   0.0537   0.0577   0.0613   0.0657   0.0682
  0.0773   0.0780   0.0822   0.0850   0.0875   0.0894   0.0948   0.0991
  0.1014   0.1026   0.1076   0.1136   0.1164   0.1172   0.1183   0.1215
  0.1293   0.1313   0.1329   0.1385   0.1413   0.1492   0.1536   0.1545
  0.1597   0.1622   0.1643   0.1664   0.1694   0.1746   0.1791   0.1816
  0.1849   0.1904   0.1946   0.1987   0.2055   0.2056   0.2118   0.2151
  0.2186   0.2213   0.2254   0.2265   0.2302   0.2367   0.2416   0.2419
  0.2481   0.2509   0.2532   0.2561   0.2649   0.2680   0.2741   0.2799
  0.2814   0.2851   0.2870   0.2955   0.2962   0.2985   0.3018   0.3024
  0.3099   0.3115   0.3129   0.3192   0.3223   0.3268   0.3315   0.3352
  0.3435   0.3451   0.3484   0.3516   0.3553   0.3610   0.3681   0.3773
  0.3840   0.3900   0.3957   0.4068   0.4171   0.4200   0.4308   0.4395
  0.4483   0.4543   0.4554   0.4659   0.4775   0.4823   0.5138   0.5303
  0.5578   0.5771   0.5913   0.6022   0.6037   0.6171   0.6410   0.6481
  0.6520   0.6603   0.6680   0.6763   0.6857   0.6887   0.6960   0.6989
  0.7051   0.7112   0.7225   0.7300   0.7338   0.7374   0.7579   0.7633
  0.7652   0.7763   0.7828   0.7918   0.7958   0.8158   0.8347   0.8432
  0.8618   0.8705   0.8800   0.8919   0.8954   0.9130   0.9229   0.9268
  0.9340   0.9430   0.9474   0.9588   0.9759   0.9774   0.9929   1.0014
  1.0101   1.0184   1.0221   1.0248   1.0342   1.0432   1.0470   1.0559
  1.0605   1.0729   1.0749   1.0883   1.0965   1.1117   1.1139   1.1259
  1.1368   1.1394   1.1462   1.1540   1.1646   1.1683   1.1741   1.1771
  1.1892   1.1967   1.1998   1.2223   1.2329   1.2413   1.2473   1.2624
  1.2715   1.2907   1.3021   1.3280   1.3327   1.3420   1.3540   1.3661
  1.3682   1.3770   1.3857   1.3898   1.4010   1.4030   1.4041   1.4213
  1.4375   1.4434   1.4530   1.4600   1.4773   1.4950   1.5046   1.5066
  1.5267   1.5426   1.5645   1.5687   1.5781   1.6087   1.6197   1.6437
  1.6624   1.6847   1.7040   1.7392   1.7488   1.7707   1.7821   1.7939
  1.8048   1.8149   1.8321   1.8409   1.8512   1.8538   1.8602   1.8687
  1.8740   1.8952   1.9097   1.9140   1.9371   1.9478   1.9518   1.9575
  2.0020   2.0056   2.0107   2.0140   2.0314   2.0363   2.0424   2.0719
  2.0770   2.0985   2.1184   2.1334   2.1457   2.1586   2.1709   2.1759
  2.1859   2.2023   2.2063   2.2236   2.2271   2.2498   2.2558   2.2847
  2.2879   2.3083   2.3423   2.3554   2.3619   2.3945   2.4130   2.4274
  2.4486   2.4865   2.4973   2.5112   2.5520   2.5692   2.6159   2.6421
  2.6533   2.7027   2.7379   2.7609   2.7839   2.7959   2.8214   2.8612
  2.8941   2.9292   2.9434   2.9711   3.0022   3.0363   3.2213   3.3198
  3.9051   4.0445   4.0559   4.2066   4.2206   4.2463   4.2583   4.2623
  4.2923   4.3056   4.3479   4.3769   4.4066   4.4311   4.4610   4.4894
  4.5044   4.5216   4.6448   4.7339
 --------------------------------------------------------------
 
          Ground-State Mulliken Net Atomic Charges

     Atom                 Charge (a.u.)
  ----------------------------------------
      1 C                    -3.649675
      2 C                     1.425034
      3 Cl                    0.269645
      4 C                     0.004127
      5 H                     0.309865
      6 C                     2.559401
      7 C                    -1.276906
      8 S                     0.955286
      9 C                    -0.541316
     10 H                     0.300434
     11 S                     1.127945
     12 O                    -0.605669
     13 O                    -0.774484
     14 N                    -0.804898
     15 H                     0.495611
     16 H                     0.514601
     17 N                    -0.486277
     18 C                     0.082189
     19 N                    -0.634300
     20 O                    -0.732796
     21 O                    -0.572069
     22 C                     0.171801
     23 Cl                   -0.128195
     24 H                     0.535270
     25 H                     0.312891
     26 H                     0.330501
     27 H                     0.322581
     28 C                    -0.361846
     29 H                     0.295169
     30 H                     0.297424
     31 H                     0.258657
  ----------------------------------------
  Sum of atomic charges =     0.000000

         Merz-Kollman ESP Net Atomic Charges

     Atom                 Charge (a.u.)
  ----------------------------------------
      1 C                    -0.093320
      2 C                    -0.133868
      3 Cl                    0.000104
      4 C                    -0.193672
      5 H                     0.177935
      6 C                     0.674539
      7 C                    -0.314232
      8 S                     1.063497
      9 C                    -0.089494
     10 H                     0.209365
     11 S                     1.064660
     12 O                    -0.530715
     13 O                    -0.560726
     14 N                    -0.797937
     15 H                     0.386123
     16 H                     0.400005
     17 N                    -1.033335
     18 C                     0.657060
     19 N                    -0.393500
     20 O                    -0.553725
     21 O                    -0.561451
     22 C                    -0.645942
     23 Cl                   -0.061619
     24 H                     0.526229
     25 H                     0.056047
     26 H                     0.288932
     27 H                     0.285128
     28 C                    -0.377274
     29 H                     0.196977
     30 H                     0.141052
     31 H                     0.213155
  ----------------------------------------
  Sum of atomic charges =     0.000000

  Related Dipole Moment =    13.7002 (X -5.1453 Y  2.4949 Z -12.4497)

 -----------------------------------------------------------------
                    Cartesian Multipole Moments
 -----------------------------------------------------------------
    Charge (ESU x 10^10)
                -0.0000
    Dipole Moment (Debye)
         X      -5.1576      Y       2.5355      Z     -12.3771
       Tot      13.6463
    Quadrupole Moments (Debye-Ang)
        XX    -143.0721     XY      -8.0934     YY    -145.6507
        XZ      16.8701     YZ      10.7556     ZZ     -81.4768
    Octopole Moments (Debye-Ang^2)
       XXX     200.1055    XXY     -65.8830    XYY      49.9982
       YYY    -258.0860    XXZ     354.6088    XYZ     -21.4885
       YYZ     466.2672    XZZ      67.1430    YZZ    -182.8736
       ZZZ     718.2570
    Hexadecapole Moments (Debye-Ang^3)
      XXXX   -3331.8080   XXXY     250.8595   XXYY    -731.1493
      XYYY     279.5681   YYYY    -978.1656   XXXZ     520.1518
      XXYZ     263.0517   XYYZ     150.4652   YYYZ     876.4091
      XXZZ   -2561.8677   XYZZ     201.2422   YYZZ   -2809.0216
      XZZZ     366.1034   YZZZ    1480.1196   ZZZZ  -10860.5228
 -----------------------------------------------------------------
 Total job time:  65.25s(wall), 496.04s(cpu) 
 Thu Jun 30 00:03:18 2022

        *************************************************************
        *                                                           *
        *  Thank you very much for using Q-Chem.  Have a nice day.  *
        *                                                           *
        *************************************************************


