                  Welcome to Q-Chem
     A Quantum Leap Into The Future Of Chemistry


 Q-Chem 5.4 (devel), Q-Chem, Inc., Pleasanton, CA (2021)

 E. Epifanovsky,  A. T. B. Gilbert,  Xintian Feng,  Joonho Lee,  Yuezhi Mao,  
 N. Mardirossian,  P. Pokhilko,  A. White,  M. Wormit,  M. P. Coons,  
 A. L. Dempwolff,  Zhengting Gan,  D. Hait,  P. R. Horn,  L. D. Jacobson,  
 I. Kaliman,  J. Kussmann,  A. W. Lange,  Ka Un Lao,  D. S. Levine,  Jie Liu,  
 S. C. McKenzie,  A. F. Morrison,  K. Nanda,  F. Plasser,  D. R. Rehn,  
 M. L. Vidal,  Zhi-Qiang You,  Ying Zhu,  B. Alam,  B. Albrecht,  
 A. Aldossary,  E. Alguire,  J. H. Andersen,  D. Barton,  K. Begam,  A. Behn,  
 Y. A. Bernard,  E. J. Berquist,  H. Burton,  A. Carreras,  K. Carter-Fenk,  
 R. Chakraborty,  A. D. Chien,  K. D. Closser,  V. Cofer-Shabica,  
 S. Dasgupta,  Jia Deng,  M. de Wergifosse,  M. Diedenhofen,  Hainam Do,  
 S. Ehlert,  Po-Tung Fang,  S. Fatehi,  Qingguo Feng,  T. Friedhoff,  
 J. Gayvert,  Qinghui Ge,  G. Gidofalvi,  M. Goldey,  J. Gomes,  
 C. Gonzalez-Espinoza,  S. Gulania,  A. Gunina,  M. W. D. Hanson-Heine,  
 P. H. P. Harbach,  A. W. Hauser,  M. F. Herbst,  M. Hernandez Vera,  
 M. Hodecker,  Z. C. Holden,  S. Houck,  Xunkun Huang,  Kerwin Hui,  
 B. C. Huynh,  M. Ivanov,  Hyunjun Ji,  Hanjie Jiang,  B. Kaduk,  S. Kaehler,  
 K. Khistyaev,  Jaehoon Kim,  P. Klunzinger,  Z. Koczor-Benda,  
 Joong Hoon Koh,  D. Kosenkov,  L. Koulias,  T. Kowalczyk,  C. M. Krauter,  
 K. Kue,  A. Kunitsa,  T. Kus,  A. Landau,  K. V. Lawler,  D. Lefrancois,  
 S. Lehtola,  Rain Li,  Yi-Pei Li,  Jiashu Liang,  M. Liebenthal,  
 Hung-Hsuan Lin,  You-Sheng Lin,  Fenglai Liu,  Kuan-Yu Liu,  
 M. Loipersberger,  A. Luenser,  A. Manjanath,  P. Manohar,  E. Mansoor,  
 S. F. Manzer,  Shan-Ping Mao,  A. V. Marenich,  T. Markovich,  S. Mason,  
 S. A. Maurer,  P. F. McLaughlin,  M. F. S. J. Menger,  J.-M. Mewes,  
 S. A. Mewes,  P. Morgante,  J. W. Mullinax,  K. J. Oosterbaan,  G. Paran,  
 Alexander C. Paul,  Suranjan K. Paul,  F. Pavosevic,  Zheng Pei,  S. Prager,  
 E. I. Proynov,  E. Ramos,  B. Rana,  A. E. Rask,  A. Rettig,  R. M. Richard,  
 F. Rob,  E. Rossomme,  T. Scheele,  M. Scheurer,  M. Schneider,  
 N. Sergueev,  S. M. Sharada,  W. Skomorowski,  D. W. Small,  C. J. Stein,  
 Yu-Chuan Su,  E. J. Sundstrom,  Zhen Tao,  J. Thirman,  T. Tsuchimochi,  
 N. M. Tubman,  S. P. Veccham,  O. Vydrov,  J. Wenzel,  J. Witte,  A. Yamada,  
 Kun Yao,  S. Yeganeh,  S. R. Yost,  A. Zech,  Igor Ying Zhang,  Xing Zhang,  
 Yu Zhang,  D. Zuev,  A. Aspuru-Guzik,  A. T. Bell,  N. A. Besley,  
 K. B. Bravaya,  B. R. Brooks,  D. Casanova,  Jeng-Da Chai,  S. Coriani,  
 C. J. Cramer,  A. E. DePrince, III,  R. A. DiStasio Jr.,  A. Dreuw,  
 B. D. Dunietz,  T. R. Furlani,  W. A. Goddard III,  S. Grimme,  
 S. Hammes-Schiffer,  T. Head-Gordon,  W. J. Hehre,  Chao-Ping Hsu,  
 T.-C. Jagau,  Yousung Jung,  A. Klamt,  Jing Kong,  D. S. Lambrecht,  
 WanZhen Liang,  N. J. Mayhall,  C. W. McCurdy,  J. B. Neaton,  
 C. Ochsenfeld,  J. A. Parkhill,  R. Peverati,  V. A. Rassolov,  Yihan Shao,  
 L. V. Slipchenko,  T. Stauch,  R. P. Steele,  J. E. Subotnik,  
 A. J. W. Thom,  A. Tkatchenko,  D. G. Truhlar,  T. Van Voorhis,  
 T. A. Wesolowski,  K. B. Whaley,  H. L. Woodcock III,  P. M. Zimmerman,  
 S. Faraji,  P. M. W. Gill,  M. Head-Gordon,  J. M. Herbert,  A. I. Krylov

 Additional authors for Version 5.4.1: 
 S. Kotaru,  Shaozhi Li,  Xiangyuan Li,  F. Matz,  A. Molle,  Haisheng Ren,  
 Yingli Su,  Hung-Yi Tsai,  C. Utku,  Fang Wang

 Contributors to earlier versions of Q-Chem not listed above: 
 R. D. Adamson,  B. Austin,  R. Baer,  J. Baker,  G. J. O. Beran,  
 K. Brandhorst,  S. T. Brown,  E. F. C. Byrd,  A. K. Chakraborty,  
 G. K. L. Chan,  Chun-Min Chang,  Yunqing Chen,  C.-L. Cheng,  
 Siu Hung Chien,  D. M. Chipman,  D. L. Crittenden,  H. Dachsel,  
 R. J. Doerksen,  A. D. Dutoi,  R. G. Edgar,  J. Fosso-Tande,  
 L. Fusti-Molnar,  D. Ghosh,  A. Ghysels,  A. Golubeva-Zadorozhnaya,  
 J. Gonthier,  M. S. Gordon,  S. R. Gwaltney,  G. Hawkins,  J. E. Herr,  
 A. Heyden,  S. Hirata,  E. G. Hohenstein,  G. Kedziora,  F. J. Keil,  
 C. Kelley,  Jihan Kim,  R. A. King,  R. Z. Khaliullin,  P. P. Korambath,  
 W. Kurlancheek,  A. Laurent,  A. M. Lee,  M. S. Lee,  S. V. Levchenko,  
 Ching Yeh Lin,  D. Liotard,  E. Livshits,  R. C. Lochan,  I. Lotan,  
 L. A. Martinez-Martinez,  P. E. Maslen,  N. Nair,  D. P. O'Neill,  
 D. Neuhauser,  E. Neuscamman,  C. M. Oana,  R. Olivares-Amaya,  R. Olson,  
 T. M. Perrine,  B. Peters,  P. A. Pieniazek,  A. Prociuk,  Y. M. Rhee,  
 J. Ritchie,  M. A. Rohrdanz,  E. Rosta,  N. J. Russ,  H. F. Schaefer III,  
 M. W. Schmidt,  N. E. Schultz,  S. Sharma,  N. Shenvi,  C. D. Sherrill,  
 A. C. Simmonett,  A. Sodt,  T. Stein,  D. Stuck,  K. S. Thanthiriwatte,  
 V. Vanovschi,  L. Vogt,  Tao Wang,  A. Warshel,  M. A. Watson,  
 C. F. Williams,  Q. Wu,  X. Xu,  Jun Yang,  W. Zhang,  Yan Zhao

 Please cite Q-Chem as follows:
 Y. Shao et al., Mol. Phys. 113, 184-215 (2015)
 DOI: 10.1080/00268976.2014.952696

 Q-Chem 5.4.1 for Intel X86 EM64T Linux

 Parts of Q-Chem use Armadillo 9.800.1 (Horizon Scraper).
 http://arma.sourceforge.net/

 Q-Chem begins on Sun Jun 12 22:38:38 2022  

 Host: gadi-cpu-clx-0887.gadi.nci.org.au
0

     Scratch files written to /jobfs/43757219.gadi-pbs/qchem1800204//
 Processing $rem in /apps/qchem/5.4.1/config/preferences:
 Processing $rem in /home/561/yj5695/.qchemrc:
 Symmetry turned off for PCM/SM12/SMD calculation
 Method-specific promolecule density matrix will be built for SM12 calculation

 Checking the input file for inconsistencies... 	...done.

--------------------------------------------------------------
User input:
--------------------------------------------------------------
$molecule
0  1
C -1.4518308703  1.2029590175 -0.4512235674
S -1.5350860428  0.7643395092  1.2598510674
O -0.1951109582  0.932859636  1.8077119193
O -2.6693818206  1.4942740768  1.817612584
N -1.8986317847 -0.8307565023  1.3833787688
H -1.1725963306 -1.429848487  0.9851627894
H -2.8185686129 -1.0553584968  0.998421997
S -2.8773945277  1.7145643532 -1.2795768392
C -1.9490794756  1.8036355334 -2.7438250239
C -0.6116968422  1.4873728273 -2.5835590429
C -0.3352567503  1.1230245562 -1.2224354186
S -2.6287895617  2.3487189957 -4.2568595429
N  0.3419238504  1.5804912177 -3.5599422721
H  0.6456832222  0.830471193 -0.8626132361
C -1.117307796  2.7811811062 -5.1422762427
C -0.1071651278  1.6519066642 -4.9437986828
O -3.3024496656  1.2383871062 -4.9554545143
O -3.4505156627  3.548126393 -4.0090567425
C -1.4657901249  3.0295733016 -6.6114016877
C -0.4088528876  3.8879108199 -7.2996451215
O -0.2923979912  5.1771377936 -6.7070452535
H  1.1724536715  1.0186124638 -3.401664505
H -0.7746499013  3.7032630352 -4.6571447921
H  0.7618589517  1.8526212447 -5.5726098424
H -0.5504004418  0.700226668 -5.2719173129
H -2.4295130895  3.5478593233 -6.6921777602
H -1.5584875858  2.0728478155 -7.1371690043
H -0.663414224  3.9778074887 -8.3614138217
H  0.5824370409  3.4334804302 -7.2259974653
H -1.1245196611  5.6564099157 -6.8516764339
$end

$rem
jobtype sp
exchange M062X
basis 6-31+G*
SMX_GAS_PHASE = TRUE
solvent_method sm12
$end

$smx
solvent water
charges mk
$end
--------------------------------------------------------------
 ----------------------------------------------------------------
             Standard Nuclear Orientation (Angstroms)
    I     Atom           X                Y                Z
 ----------------------------------------------------------------
    1      C      -1.4518308703     1.2029590175    -0.4512235674
    2      S      -1.5350860428     0.7643395092     1.2598510674
    3      O      -0.1951109582     0.9328596360     1.8077119193
    4      O      -2.6693818206     1.4942740768     1.8176125840
    5      N      -1.8986317847    -0.8307565023     1.3833787688
    6      H      -1.1725963306    -1.4298484870     0.9851627894
    7      H      -2.8185686129    -1.0553584968     0.9984219970
    8      S      -2.8773945277     1.7145643532    -1.2795768392
    9      C      -1.9490794756     1.8036355334    -2.7438250239
   10      C      -0.6116968422     1.4873728273    -2.5835590429
   11      C      -0.3352567503     1.1230245562    -1.2224354186
   12      S      -2.6287895617     2.3487189957    -4.2568595429
   13      N       0.3419238504     1.5804912177    -3.5599422721
   14      H       0.6456832222     0.8304711930    -0.8626132361
   15      C      -1.1173077960     2.7811811062    -5.1422762427
   16      C      -0.1071651278     1.6519066642    -4.9437986828
   17      O      -3.3024496656     1.2383871062    -4.9554545143
   18      O      -3.4505156627     3.5481263930    -4.0090567425
   19      C      -1.4657901249     3.0295733016    -6.6114016877
   20      C      -0.4088528876     3.8879108199    -7.2996451215
   21      O      -0.2923979912     5.1771377936    -6.7070452535
   22      H       1.1724536715     1.0186124638    -3.4016645050
   23      H      -0.7746499013     3.7032630352    -4.6571447921
   24      H       0.7618589517     1.8526212447    -5.5726098424
   25      H      -0.5504004418     0.7002266680    -5.2719173129
   26      H      -2.4295130895     3.5478593233    -6.6921777602
   27      H      -1.5584875858     2.0728478155    -7.1371690043
   28      H      -0.6634142240     3.9778074887    -8.3614138217
   29      H       0.5824370409     3.4334804302    -7.2259974653
   30      H      -1.1245196611     5.6564099157    -6.8516764339
 ----------------------------------------------------------------
 Nuclear Repulsion Energy =        1900.80176011 hartrees
 There are       81 alpha and       81 beta electrons
 Requested basis set is 6-31+G(d)
 There are 117 shells and 378 basis functions

 Total QAlloc Memory Limit   2000 MB
 Mega-Array Size       188 MB
 MEM_STATIC part       192 MB
 A cutoff of  1.0D-08 yielded   4586 shell pairs
 There are     51676 function pairs
 Smallest overlap matrix eigenvalue = 1.05E-06

 Q-Chem warning in module stvman/mkSTV.C, line 323:

 Overlap eigenvalue is smaller than square root of threshold
 Use THRESH >= 12 to get rid of this warning


 Scale SEOQF with 1.000000e-01/1.000000e-02/1.000000e-02

 Standard Electronic Orientation quadrupole field applied
 Nucleus-field energy     =     0.0000000017 hartrees
 ================ Generating on-the-fly Promolecule Density  ================
Attempting to make child job directory: /jobfs/43757219.gadi-pbs/qchem1800204//Frg1/
Attempting to make child job directory: /jobfs/43757219.gadi-pbs/qchem1800204//Frg2/
Attempting to make child job directory: /jobfs/43757219.gadi-pbs/qchem1800204//Frg3/
Attempting to make child job directory: /jobfs/43757219.gadi-pbs/qchem1800204//Frg4/
Attempting to make child job directory: /jobfs/43757219.gadi-pbs/qchem1800204//Frg5/
Creating input file /jobfs/43757219.gadi-pbs/qchem1800204/Frg1.input
using default PutDataFrgm: nothing
calling putenv with: QCSCRATCH=/jobfs/43757219.gadi-pbs/qchem1800204/ 
Spawning Job For Fragment 0
Done Job For Fragment 0
calling putenv with: QCSCRATCH=/jobfs/43757219.gadi-pbs 
calling putenv with: QCTHREADS=16 
Creating input file /jobfs/43757219.gadi-pbs/qchem1800204/Frg2.input
using default PutDataFrgm: nothing
calling putenv with: QCSCRATCH=/jobfs/43757219.gadi-pbs/qchem1800204/ 
Spawning Job For Fragment 1
Done Job For Fragment 1
calling putenv with: QCSCRATCH=/jobfs/43757219.gadi-pbs 
calling putenv with: QCTHREADS=16 
Creating input file /jobfs/43757219.gadi-pbs/qchem1800204/Frg3.input
using default PutDataFrgm: nothing
calling putenv with: QCSCRATCH=/jobfs/43757219.gadi-pbs/qchem1800204/ 
Spawning Job For Fragment 2
Done Job For Fragment 2
calling putenv with: QCSCRATCH=/jobfs/43757219.gadi-pbs 
calling putenv with: QCTHREADS=16 
Creating input file /jobfs/43757219.gadi-pbs/qchem1800204/Frg4.input
using default PutDataFrgm: nothing
calling putenv with: QCSCRATCH=/jobfs/43757219.gadi-pbs/qchem1800204/ 
Spawning Job For Fragment 3
Done Job For Fragment 3
calling putenv with: QCSCRATCH=/jobfs/43757219.gadi-pbs 
calling putenv with: QCTHREADS=16 
Creating input file /jobfs/43757219.gadi-pbs/qchem1800204/Frg5.input
using default PutDataFrgm: nothing
calling putenv with: QCSCRATCH=/jobfs/43757219.gadi-pbs/qchem1800204/ 
Spawning Job For Fragment 4
Done Job For Fragment 4
calling putenv with: QCSCRATCH=/jobfs/43757219.gadi-pbs 
calling putenv with: QCTHREADS=16 
 Time for running child jobs:  CPU 1.87 s  wall 1.88 s
 ============= Method Specific Promolecule Density Constructed =============
 Guess from superposition of atomic densities
 Warning:  Energy on first SCF cycle will be non-variational
 SAD guess density has 162.000000 electrons

 -----------------------------------------------------------------------
  General SCF calculation program by
  Eric Jon Sundstrom, Paul Horn, Yuezhi Mao, Dmitri Zuev, Alec White,
  David Stuck, Shaama M.S., Shane Yost, Joonho Lee, David Small,
  Daniel Levine, Susi Lehtola, Hugh Burton, Evgeny Epifanovsky,
  Bang C. Huynh
 -----------------------------------------------------------------------
 Exchange:     0.5400 Hartree-Fock + 1.0000 M06-2X
 Correlation:  1.0000 M06-2X
 Using SG-3 standard quadrature grid
 using 16 threads for integral computing
 -------------------------------------------------------
 OpenMP Integral computing Module                
 Release: version 1.0, May 2013, Q-Chem Inc. Pittsburgh 
 -------------------------------------------------------
 A restricted SCF calculation will be
 performed using DIIS
 SCF converges when DIIS error is below 1.0e-05
 ---------------------------------------
  Cycle       Energy         DIIS error
 ---------------------------------------
    1   -1997.5994918800      4.01e-02  
    2   -1991.2315510602      5.48e-03  
    3   -1990.8261610230      8.00e-03  
    4   -1991.6705496936      7.80e-04  
    5   -1991.6785931175      3.47e-04  
    6   -1991.6805083043      5.68e-05  
    7   -1991.6805522107      2.71e-05  
    8   -1991.6805643547      7.43e-06  Convergence criterion met
 ---------------------------------------
 SCF time:   CPU 216.04s  wall 15.00s 
 SCF   energy in the final basis set =    -1991.6805643547
 Total energy in the final basis set =    -1991.6805643547
 Exchange:     0.5400 Hartree-Fock + 1.0000 M06-2X
 Correlation:  1.0000 M06-2X
 Using SG-3 standard quadrature grid
 
 SM12 calculation using Merz-Singh-Kollman charges
 Citation of the SM12 model:
 Marenich, A.V.; Cramer, C.J.; Truhlar, D.G.
 J. Chem. Theory Comput. 2013, 9, 609-612.
 iSolventCode=           1
 Solvent: water                                                           
 
  Building new vdw surfaces
         Merz-Kollman ESP Net Atomic Charges

     Atom                 Charge (a.u.)
  ----------------------------------------
      1 C                    -0.308697
      2 S                     1.104135
      3 O                    -0.487050
      4 O                    -0.474703
      5 N                    -0.827624
      6 H                     0.389576
      7 H                     0.388283
      8 S                     0.211743
      9 C                    -0.310177
     10 C                     0.330467
     11 C                    -0.188609
     12 S                     0.937392
     13 N                    -0.593585
     14 H                     0.192786
     15 C                    -0.018666
     16 C                    -0.047969
     17 O                    -0.524529
     18 O                    -0.514763
     19 C                    -0.484904
     20 C                     0.267621
     21 O                    -0.684353
     22 H                     0.368350
     23 H                     0.159506
     24 H                     0.149576
     25 H                     0.088169
     26 H                     0.188876
     27 H                     0.151582
     28 H                     0.027660
     29 H                     0.068563
     30 H                     0.441346
  ----------------------------------------
  Sum of atomic charges =     0.000000

  Related Dipole Moment =     8.7383 (X  4.7506 Y -4.3768 Z -5.8851)


 Charges (in A.U.) from Merz-Kollman fitting 
 -----------------------------------------------
 Center     Atomic                  MZ       
 Number     Number                  Charge
 -----------------------------------------------
    1          6                   -0.308697
    2         16                    1.104135
    3          8                   -0.487050
    4          8                   -0.474703
    5          7                   -0.827624
    6          1                    0.389576
    7          1                    0.388283
    8         16                    0.211743
    9          6                   -0.310177
   10          6                    0.330467
   11          6                   -0.188609
   12         16                    0.937392
   13          7                   -0.593585
   14          1                    0.192786
   15          6                   -0.018666
   16          6                   -0.047969
   17          8                   -0.524529
   18          8                   -0.514763
   19          6                   -0.484904
   20          6                    0.267621
   21          8                   -0.684353
   22          1                    0.368350
   23          1                    0.159506
   24          1                    0.149576
   25          1                    0.088169
   26          1                    0.188876
   27          1                    0.151582
   28          1                    0.027660
   29          1                    0.068563
   30          1                    0.441346
 -----------------------------------------------
 A restricted SCF calculation will be
 performed using Roothaan-Hall, DIIS
 SCF converges when DIIS error is below 1.0e-05
 ---------------------------------------
  Cycle       Energy         DIIS error
 ---------------------------------------
         Merz-Kollman ESP Net Atomic Charges

     Atom                 Charge (a.u.)
  ----------------------------------------
      1 C                    -0.292041
      2 S                     1.136528
      3 O                    -0.533997
      4 O                    -0.531598
      5 N                    -0.811579
      6 H                     0.408179
      7 H                     0.403731
      8 S                     0.150864
      9 C                    -0.351094
     10 C                     0.362834
     11 C                    -0.160095
     12 S                     1.006442
     13 N                    -0.562868
     14 H                     0.208283
     15 C                    -0.020134
     16 C                    -0.044830
     17 O                    -0.584542
     18 O                    -0.582176
     19 C                    -0.474949
     20 C                     0.280707
     21 O                    -0.721507
     22 H                     0.385392
     23 H                     0.161083
     24 H                     0.173114
     25 H                     0.087202
     26 H                     0.184270
     27 H                     0.156623
     28 H                     0.035232
     29 H                     0.072595
     30 H                     0.458334
  ----------------------------------------
  Sum of atomic charges =     0.000000

  Related Dipole Moment =    11.3338 (X  7.1410 Y -5.5204 Z -6.8546)


 Charges (in A.U.) from Merz-Kollman fitting 
 -----------------------------------------------
 Center     Atomic                  MZ       
 Number     Number                  Charge
 -----------------------------------------------
    1          6                   -0.292041
    2         16                    1.136528
    3          8                   -0.533997
    4          8                   -0.531598
    5          7                   -0.811579
    6          1                    0.408179
    7          1                    0.403731
    8         16                    0.150864
    9          6                   -0.351094
   10          6                    0.362834
   11          6                   -0.160095
   12         16                    1.006442
   13          7                   -0.562868
   14          1                    0.208283
   15          6                   -0.020134
   16          6                   -0.044830
   17          8                   -0.584542
   18          8                   -0.582176
   19          6                   -0.474949
   20          6                    0.280707
   21          8                   -0.721507
   22          1                    0.385392
   23          1                    0.161083
   24          1                    0.173114
   25          1                    0.087202
   26          1                    0.184270
   27          1                    0.156623
   28          1                    0.035232
   29          1                    0.072595
   30          1                    0.458334
 -----------------------------------------------
    1   -1991.6805652378      4.43e-04  Roothaan Step
 ---------------------------------------
  Cycle       Energy         DIIS error
 ---------------------------------------
         Merz-Kollman ESP Net Atomic Charges

     Atom                 Charge (a.u.)
  ----------------------------------------
      1 C                    -0.291145
      2 S                     1.093106
      3 O                    -0.512775
      4 O                    -0.500342
      5 N                    -0.817939
      6 H                     0.405277
      7 H                     0.404350
      8 S                     0.194804
      9 C                    -0.318054
     10 C                     0.304428
     11 C                    -0.202561
     12 S                     1.008884
     13 N                    -0.552806
     14 H                     0.217785
     15 C                    -0.078097
     16 C                    -0.099384
     17 O                    -0.572720
     18 O                    -0.560149
     19 C                    -0.492931
     20 C                     0.263249
     21 O                    -0.708133
     22 H                     0.391929
     23 H                     0.180139
     24 H                     0.195190
     25 H                     0.107321
     26 H                     0.194474
     27 H                     0.168424
     28 H                     0.042654
     29 H                     0.077423
     30 H                     0.457600
  ----------------------------------------
  Sum of atomic charges =     0.000000

  Related Dipole Moment =    10.4318 (X  6.1473 Y -5.0581 Z -6.7415)


 Charges (in A.U.) from Merz-Kollman fitting 
 -----------------------------------------------
 Center     Atomic                  MZ       
 Number     Number                  Charge
 -----------------------------------------------
    1          6                   -0.291145
    2         16                    1.093106
    3          8                   -0.512775
    4          8                   -0.500342
    5          7                   -0.817939
    6          1                    0.405277
    7          1                    0.404350
    8         16                    0.194804
    9          6                   -0.318054
   10          6                    0.304428
   11          6                   -0.202561
   12         16                    1.008884
   13          7                   -0.552806
   14          1                    0.217785
   15          6                   -0.078097
   16          6                   -0.099384
   17          8                   -0.572720
   18          8                   -0.560149
   19          6                   -0.492931
   20          6                    0.263249
   21          8                   -0.708133
   22          1                    0.391929
   23          1                    0.180139
   24          1                    0.195190
   25          1                    0.107321
   26          1                    0.194474
   27          1                    0.168424
   28          1                    0.042654
   29          1                    0.077423
   30          1                    0.457600
 -----------------------------------------------
    1   -1991.6683404549      3.53e-04  
         Merz-Kollman ESP Net Atomic Charges

     Atom                 Charge (a.u.)
  ----------------------------------------
      1 C                    -0.283487
      2 S                     1.130523
      3 O                    -0.532000
      4 O                    -0.525821
      5 N                    -0.813505
      6 H                     0.406362
      7 H                     0.403880
      8 S                     0.166783
      9 C                    -0.344166
     10 C                     0.344145
     11 C                    -0.186284
     12 S                     1.027326
     13 N                    -0.553202
     14 H                     0.214372
     15 C                    -0.040225
     16 C                    -0.087283
     17 O                    -0.589482
     18 O                    -0.582582
     19 C                    -0.486558
     20 C                     0.267891
     21 O                    -0.716972
     22 H                     0.389224
     23 H                     0.169743
     24 H                     0.189053
     25 H                     0.100974
     26 H                     0.190276
     27 H                     0.163603
     28 H                     0.041478
     29 H                     0.076078
     30 H                     0.459853
  ----------------------------------------
  Sum of atomic charges =     0.000000

  Related Dipole Moment =    11.0787 (X  6.8445 Y -5.3598 Z -6.8676)


 Charges (in A.U.) from Merz-Kollman fitting 
 -----------------------------------------------
 Center     Atomic                  MZ       
 Number     Number                  Charge
 -----------------------------------------------
    1          6                   -0.283487
    2         16                    1.130523
    3          8                   -0.532000
    4          8                   -0.525821
    5          7                   -0.813505
    6          1                    0.406362
    7          1                    0.403880
    8         16                    0.166783
    9          6                   -0.344166
   10          6                    0.344145
   11          6                   -0.186284
   12         16                    1.027326
   13          7                   -0.553202
   14          1                    0.214372
   15          6                   -0.040225
   16          6                   -0.087283
   17          8                   -0.589482
   18          8                   -0.582582
   19          6                   -0.486558
   20          6                    0.267891
   21          8                   -0.716972
   22          1                    0.389224
   23          1                    0.169743
   24          1                    0.189053
   25          1                    0.100974
   26          1                    0.190276
   27          1                    0.163603
   28          1                    0.041478
   29          1                    0.076078
   30          1                    0.459853
 -----------------------------------------------
    2   -1991.6713497657      4.28e-04  
         Merz-Kollman ESP Net Atomic Charges

     Atom                 Charge (a.u.)
  ----------------------------------------
      1 C                    -0.289175
      2 S                     1.121717
      3 O                    -0.529717
      4 O                    -0.522121
      5 N                    -0.811984
      6 H                     0.406880
      7 H                     0.404353
      8 S                     0.167995
      9 C                    -0.342453
     10 C                     0.338952
     11 C                    -0.180346
     12 S                     1.023614
     13 N                    -0.550917
     14 H                     0.214226
     15 C                    -0.049035
     16 C                    -0.083435
     17 O                    -0.588611
     18 O                    -0.580854
     19 C                    -0.483710
     20 C                     0.269313
     21 O                    -0.717960
     22 H                     0.389758
     23 H                     0.171803
     24 H                     0.189799
     25 H                     0.100646
     26 H                     0.189852
     27 H                     0.163709
     28 H                     0.041548
     29 H                     0.075940
     30 H                     0.460214
  ----------------------------------------
  Sum of atomic charges =     0.000000

  Related Dipole Moment =    11.1296 (X  6.8814 Y -5.3672 Z -6.9071)


 Charges (in A.U.) from Merz-Kollman fitting 
 -----------------------------------------------
 Center     Atomic                  MZ       
 Number     Number                  Charge
 -----------------------------------------------
    1          6                   -0.289175
    2         16                    1.121717
    3          8                   -0.529717
    4          8                   -0.522121
    5          7                   -0.811984
    6          1                    0.406880
    7          1                    0.404353
    8         16                    0.167995
    9          6                   -0.342453
   10          6                    0.338952
   11          6                   -0.180346
   12         16                    1.023614
   13          7                   -0.550917
   14          1                    0.214226
   15          6                   -0.049035
   16          6                   -0.083435
   17          8                   -0.588611
   18          8                   -0.580854
   19          6                   -0.483710
   20          6                    0.269313
   21          8                   -0.717960
   22          1                    0.389758
   23          1                    0.171803
   24          1                    0.189799
   25          1                    0.100646
   26          1                    0.189852
   27          1                    0.163709
   28          1                    0.041548
   29          1                    0.075940
   30          1                    0.460214
 -----------------------------------------------
    3   -1991.6700170160      3.89e-05  
         Merz-Kollman ESP Net Atomic Charges

     Atom                 Charge (a.u.)
  ----------------------------------------
      1 C                    -0.284812
      2 S                     1.125020
      3 O                    -0.530901
      4 O                    -0.523920
      5 N                    -0.812763
      6 H                     0.406825
      7 H                     0.404396
      8 S                     0.167623
      9 C                    -0.343209
     10 C                     0.339313
     11 C                    -0.184650
     12 S                     1.027563
     13 N                    -0.550715
     14 H                     0.214880
     15 C                    -0.048487
     16 C                    -0.086487
     17 O                    -0.589884
     18 O                    -0.582408
     19 C                    -0.485120
     20 C                     0.267849
     21 O                    -0.717214
     22 H                     0.390017
     23 H                     0.171823
     24 H                     0.190717
     25 H                     0.101541
     26 H                     0.190375
     27 H                     0.164151
     28 H                     0.042087
     29 H                     0.076239
     30 H                     0.460151
  ----------------------------------------
  Sum of atomic charges =     0.000000

  Related Dipole Moment =    11.1250 (X  6.8770 Y -5.3670 Z -6.9043)


 Charges (in A.U.) from Merz-Kollman fitting 
 -----------------------------------------------
 Center     Atomic                  MZ       
 Number     Number                  Charge
 -----------------------------------------------
    1          6                   -0.284812
    2         16                    1.125020
    3          8                   -0.530901
    4          8                   -0.523920
    5          7                   -0.812763
    6          1                    0.406825
    7          1                    0.404396
    8         16                    0.167623
    9          6                   -0.343209
   10          6                    0.339313
   11          6                   -0.184650
   12         16                    1.027563
   13          7                   -0.550715
   14          1                    0.214880
   15          6                   -0.048487
   16          6                   -0.086487
   17          8                   -0.589884
   18          8                   -0.582408
   19          6                   -0.485120
   20          6                    0.267849
   21          8                   -0.717214
   22          1                    0.390017
   23          1                    0.171823
   24          1                    0.190717
   25          1                    0.101541
   26          1                    0.190375
   27          1                    0.164151
   28          1                    0.042087
   29          1                    0.076239
   30          1                    0.460151
 -----------------------------------------------
    4   -1991.6697030774      2.11e-05  
    5   -1991.6696328918      5.58e-06  Convergence criterion met
 ---------------------------------------
 SCF time:   CPU 214.36s  wall 16.00s 
(0)  E-EN(g) gas-phase elect-nuc energy                -1991.680564355 a.u.
(1)  E-EN(liq) elect-nuc energy of solute              -1991.669632892 a.u.
(2)  G-P(liq) polarization free energy of solvation           -36.8975 kcal/mol
(3)  G-ENP(liq) elect-nuc-pol free energy of system    -1991.728432815 a.u.
(4)  G-CDS(liq) cavity-dispersion-solvent structure 
     free energy                                                1.1406 kcal/mol
(5)  G-P-CDS(liq) = G-P(liq) + G-CDS(liq) = (2) + (4)         -35.7569 kcal/mol
(6)  G-S(liq) free energy of system = (1) + (5)        -1991.726615114 a.u.
(7)  DeltaE-EN(liq) elect-nuc reorganization
     energy of solute molecule (7) = (1) - (0)                  6.8596 kcal/mol
(8)  DeltaG-ENP(liq) elect-nuc-pol free energy
     of solvation (8) = (3) - (0)                             -30.0379 kcal/mol
(9)  DeltaG-S(liq) free energy of  solvation
     (9) = (6) - (0)                                          -28.8973 kcal/mol
 SCF   energy in the final basis set =    -1991.7266151143
 Total energy in the final basis set =    -1991.7266151143
 
 --------------------------------------------------------------
 
                    Orbital Energies (a.u.)
 --------------------------------------------------------------
 
 Alpha MOs
 -- Occupied --
-90.1913 -90.1558 -89.9923 -19.6696 -19.6672 -19.6563 -19.6549 -19.6533
-14.8140 -14.8046 -10.6419 -10.6395 -10.6184 -10.6094 -10.6072 -10.6037
-10.6011 -10.5684  -8.5040  -8.4740  -8.3394  -6.4262  -6.4259  -6.4254
 -6.3956  -6.3955  -6.3947  -6.2599  -6.2577  -6.2546  -1.2718  -1.2430
 -1.1577  -1.1525  -1.1336  -1.0915  -1.0445  -1.0149  -0.9451  -0.8965
 -0.8685  -0.8415  -0.7996  -0.7630  -0.7426  -0.7006  -0.6905  -0.6452
 -0.6395  -0.6263  -0.6200  -0.6007  -0.5932  -0.5848  -0.5797  -0.5587
 -0.5520  -0.5439  -0.5317  -0.5218  -0.5096  -0.4980  -0.4893  -0.4786
 -0.4609  -0.4534  -0.4453  -0.4385  -0.4312  -0.4266  -0.4200  -0.4156
 -0.4110  -0.4025  -0.4000  -0.3952  -0.3871  -0.3745  -0.3572  -0.3339
 -0.2837
 -- Virtual --
 -0.0445  -0.0108   0.0042   0.0222   0.0256   0.0278   0.0317   0.0368
  0.0403   0.0458   0.0488   0.0515   0.0572   0.0584   0.0627   0.0700
  0.0716   0.0797   0.0808   0.0856   0.0952   0.0996   0.1009   0.1057
  0.1066   0.1139   0.1148   0.1188   0.1211   0.1267   0.1285   0.1353
  0.1380   0.1421   0.1447   0.1560   0.1584   0.1595   0.1677   0.1695
  0.1725   0.1748   0.1760   0.1823   0.1906   0.1935   0.1982   0.2008
  0.2094   0.2107   0.2121   0.2195   0.2225   0.2247   0.2290   0.2352
  0.2386   0.2445   0.2459   0.2487   0.2519   0.2559   0.2586   0.2643
  0.2714   0.2742   0.2774   0.2822   0.2843   0.2864   0.2933   0.2977
  0.3039   0.3056   0.3089   0.3096   0.3137   0.3204   0.3277   0.3308
  0.3354   0.3398   0.3468   0.3488   0.3505   0.3580   0.3604   0.3663
  0.3709   0.3781   0.3816   0.3877   0.3943   0.4044   0.4120   0.4172
  0.4209   0.4294   0.4378   0.4428   0.4505   0.4596   0.4788   0.4798
  0.5133   0.5205   0.5582   0.5704   0.5810   0.5871   0.6256   0.6313
  0.6383   0.6611   0.6628   0.6712   0.6761   0.6952   0.7013   0.7095
  0.7243   0.7269   0.7351   0.7378   0.7489   0.7646   0.7696   0.7782
  0.7835   0.8018   0.8131   0.8379   0.8570   0.8763   0.8989   0.9118
  0.9334   0.9422   0.9464   0.9597   0.9716   0.9766   0.9871   1.0040
  1.0075   1.0129   1.0270   1.0367   1.0457   1.0482   1.0580   1.0748
  1.0787   1.0801   1.0924   1.1047   1.1122   1.1177   1.1259   1.1353
  1.1365   1.1417   1.1498   1.1611   1.1746   1.1844   1.1921   1.1930
  1.1967   1.2066   1.2233   1.2329   1.2661   1.2813   1.2826   1.3077
  1.3116   1.3293   1.3335   1.3501   1.3560   1.3624   1.3632   1.3682
  1.3759   1.3786   1.3847   1.3986   1.4168   1.4258   1.4347   1.4445
  1.4525   1.4643   1.4786   1.4963   1.5315   1.5495   1.5692   1.5770
  1.6007   1.6351   1.6381   1.6688   1.7003   1.7131   1.7294   1.7361
  1.7416   1.7531   1.7775   1.7932   1.8090   1.8142   1.8361   1.8418
  1.8452   1.8480   1.8571   1.8682   1.8840   1.8957   1.8983   1.9125
  1.9180   1.9390   1.9457   1.9631   1.9731   1.9784   2.0113   2.0173
  2.0425   2.0537   2.0652   2.0836   2.0891   2.1303   2.1369   2.1424
  2.1445   2.1628   2.1651   2.1955   2.2057   2.2296   2.2539   2.2644
  2.2791   2.3103   2.3309   2.3354   2.3542   2.3780   2.3931   2.4039
  2.4171   2.4489   2.4641   2.4837   2.4957   2.5142   2.5257   2.5556
  2.5933   2.6698   2.6934   2.7099   2.7658   2.7912   2.8192   2.8525
  2.8907   2.9153   2.9250   2.9445   2.9819   3.0655   3.0999   3.8750
  3.9603   4.0336   4.0736   4.1308   4.1806   4.2186   4.2248   4.2534
  4.2904   4.3094   4.3314   4.4087   4.4373   4.4746   4.5759   4.6168
  4.6572
 --------------------------------------------------------------
 
          Ground-State Mulliken Net Atomic Charges

     Atom                 Charge (a.u.)
  ----------------------------------------
      1 C                    -1.447521
      2 S                     1.541586
      3 O                    -0.670987
      4 O                    -0.739719
      5 N                    -0.761642
      6 H                     0.515101
      7 H                     0.509642
      8 S                    -0.015739
      9 C                    -1.571283
     10 C                     1.253070
     11 C                     0.380731
     12 S                     0.578057
     13 N                    -0.434990
     14 H                     0.332249
     15 C                    -0.967666
     16 C                     0.723084
     17 O                    -0.576646
     18 O                    -0.711016
     19 C                    -0.117182
     20 C                     0.005029
     21 O                    -0.764984
     22 H                     0.504441
     23 H                     0.333722
     24 H                     0.297475
     25 H                     0.291131
     26 H                     0.242122
     27 H                     0.277348
     28 H                     0.237208
     29 H                     0.225104
     30 H                     0.532275
  ----------------------------------------
  Sum of atomic charges =     0.000000

         Merz-Kollman ESP Net Atomic Charges

     Atom                 Charge (a.u.)
  ----------------------------------------
      1 C                    -0.285880
      2 S                     1.124900
      3 O                    -0.530880
      4 O                    -0.523654
      5 N                    -0.812528
      6 H                     0.406713
      7 H                     0.404293
      8 S                     0.167557
      9 C                    -0.343540
     10 C                     0.339794
     11 C                    -0.183826
     12 S                     1.028153
     13 N                    -0.550340
     14 H                     0.214705
     15 C                    -0.048154
     16 C                    -0.087330
     17 O                    -0.590227
     18 O                    -0.582547
     19 C                    -0.485233
     20 C                     0.267825
     21 O                    -0.717361
     22 H                     0.389930
     23 H                     0.171800
     24 H                     0.190879
     25 H                     0.101754
     26 H                     0.190411
     27 H                     0.164183
     28 H                     0.042154
     29 H                     0.076214
     30 H                     0.460235
  ----------------------------------------
  Sum of atomic charges =     0.000000

  Related Dipole Moment =    11.1280 (X  6.8813 Y -5.3650 Z -6.9063)

 -----------------------------------------------------------------
                    Cartesian Multipole Moments
 -----------------------------------------------------------------
    Charge (ESU x 10^10)
                 0.0000
    Dipole Moment (Debye)
         X       6.7890      Y      -5.3930      Z      -6.8503
       Tot      11.0500
    Quadrupole Moments (Debye-Ang)
        XX    -154.0784     XY      15.4237     YY    -139.1086
        XZ     -19.6325     YZ     -12.6043     ZZ    -107.0466
    Octopole Moments (Debye-Ang^2)
       XXX     716.8553    XXY    -321.9290    XYY     204.5932
       YYY    -786.0099    XXZ     428.9248    XYZ      16.5852
       YYZ     328.0396    XZZ     285.4434    YZZ    -144.7189
       ZZZ     671.2241
    Hexadecapole Moments (Debye-Ang^3)
      XXXX   -3452.2186   XXXY    1430.9558   XXYY   -1386.5478
      XYYY    1011.6351   YYYY   -4342.8664   XXXZ   -1855.3556
      XXYZ    1157.0310   XYYZ    -246.7260   YYYZ    3050.0630
      XXZZ   -3010.3240   XYZZ     121.1380   YYZZ   -2393.4413
      XZZZ   -1359.4106   YZZZ    1900.9937   ZZZZ   -9345.2394
 -----------------------------------------------------------------
 Total job time:  33.31s(wall), 440.25s(cpu) 
 Sun Jun 12 22:39:11 2022

        *************************************************************
        *                                                           *
        *  Thank you very much for using Q-Chem.  Have a nice day.  *
        *                                                           *
        *************************************************************


