                  Welcome to Q-Chem
     A Quantum Leap Into The Future Of Chemistry


 Q-Chem 5.4 (devel), Q-Chem, Inc., Pleasanton, CA (2021)

 E. Epifanovsky,  A. T. B. Gilbert,  Xintian Feng,  Joonho Lee,  Yuezhi Mao,  
 N. Mardirossian,  P. Pokhilko,  A. White,  M. Wormit,  M. P. Coons,  
 A. L. Dempwolff,  Zhengting Gan,  D. Hait,  P. R. Horn,  L. D. Jacobson,  
 I. Kaliman,  J. Kussmann,  A. W. Lange,  Ka Un Lao,  D. S. Levine,  Jie Liu,  
 S. C. McKenzie,  A. F. Morrison,  K. Nanda,  F. Plasser,  D. R. Rehn,  
 M. L. Vidal,  Zhi-Qiang You,  Ying Zhu,  B. Alam,  B. Albrecht,  
 A. Aldossary,  E. Alguire,  J. H. Andersen,  D. Barton,  K. Begam,  A. Behn,  
 Y. A. Bernard,  E. J. Berquist,  H. Burton,  A. Carreras,  K. Carter-Fenk,  
 R. Chakraborty,  A. D. Chien,  K. D. Closser,  V. Cofer-Shabica,  
 S. Dasgupta,  Jia Deng,  M. de Wergifosse,  M. Diedenhofen,  Hainam Do,  
 S. Ehlert,  Po-Tung Fang,  S. Fatehi,  Qingguo Feng,  T. Friedhoff,  
 J. Gayvert,  Qinghui Ge,  G. Gidofalvi,  M. Goldey,  J. Gomes,  
 C. Gonzalez-Espinoza,  S. Gulania,  A. Gunina,  M. W. D. Hanson-Heine,  
 P. H. P. Harbach,  A. W. Hauser,  M. F. Herbst,  M. Hernandez Vera,  
 M. Hodecker,  Z. C. Holden,  S. Houck,  Xunkun Huang,  Kerwin Hui,  
 B. C. Huynh,  M. Ivanov,  Hyunjun Ji,  Hanjie Jiang,  B. Kaduk,  S. Kaehler,  
 K. Khistyaev,  Jaehoon Kim,  P. Klunzinger,  Z. Koczor-Benda,  
 Joong Hoon Koh,  D. Kosenkov,  L. Koulias,  T. Kowalczyk,  C. M. Krauter,  
 K. Kue,  A. Kunitsa,  T. Kus,  A. Landau,  K. V. Lawler,  D. Lefrancois,  
 S. Lehtola,  Rain Li,  Yi-Pei Li,  Jiashu Liang,  M. Liebenthal,  
 Hung-Hsuan Lin,  You-Sheng Lin,  Fenglai Liu,  Kuan-Yu Liu,  
 M. Loipersberger,  A. Luenser,  A. Manjanath,  P. Manohar,  E. Mansoor,  
 S. F. Manzer,  Shan-Ping Mao,  A. V. Marenich,  T. Markovich,  S. Mason,  
 S. A. Maurer,  P. F. McLaughlin,  M. F. S. J. Menger,  J.-M. Mewes,  
 S. A. Mewes,  P. Morgante,  J. W. Mullinax,  K. J. Oosterbaan,  G. Paran,  
 Alexander C. Paul,  Suranjan K. Paul,  F. Pavosevic,  Zheng Pei,  S. Prager,  
 E. I. Proynov,  E. Ramos,  B. Rana,  A. E. Rask,  A. Rettig,  R. M. Richard,  
 F. Rob,  E. Rossomme,  T. Scheele,  M. Scheurer,  M. Schneider,  
 N. Sergueev,  S. M. Sharada,  W. Skomorowski,  D. W. Small,  C. J. Stein,  
 Yu-Chuan Su,  E. J. Sundstrom,  Zhen Tao,  J. Thirman,  T. Tsuchimochi,  
 N. M. Tubman,  S. P. Veccham,  O. Vydrov,  J. Wenzel,  J. Witte,  A. Yamada,  
 Kun Yao,  S. Yeganeh,  S. R. Yost,  A. Zech,  Igor Ying Zhang,  Xing Zhang,  
 Yu Zhang,  D. Zuev,  A. Aspuru-Guzik,  A. T. Bell,  N. A. Besley,  
 K. B. Bravaya,  B. R. Brooks,  D. Casanova,  Jeng-Da Chai,  S. Coriani,  
 C. J. Cramer,  A. E. DePrince, III,  R. A. DiStasio Jr.,  A. Dreuw,  
 B. D. Dunietz,  T. R. Furlani,  W. A. Goddard III,  S. Grimme,  
 S. Hammes-Schiffer,  T. Head-Gordon,  W. J. Hehre,  Chao-Ping Hsu,  
 T.-C. Jagau,  Yousung Jung,  A. Klamt,  Jing Kong,  D. S. Lambrecht,  
 WanZhen Liang,  N. J. Mayhall,  C. W. McCurdy,  J. B. Neaton,  
 C. Ochsenfeld,  J. A. Parkhill,  R. Peverati,  V. A. Rassolov,  Yihan Shao,  
 L. V. Slipchenko,  T. Stauch,  R. P. Steele,  J. E. Subotnik,  
 A. J. W. Thom,  A. Tkatchenko,  D. G. Truhlar,  T. Van Voorhis,  
 T. A. Wesolowski,  K. B. Whaley,  H. L. Woodcock III,  P. M. Zimmerman,  
 S. Faraji,  P. M. W. Gill,  M. Head-Gordon,  J. M. Herbert,  A. I. Krylov

 Additional authors for Version 5.4.1: 
 S. Kotaru,  Shaozhi Li,  Xiangyuan Li,  F. Matz,  A. Molle,  Haisheng Ren,  
 Yingli Su,  Hung-Yi Tsai,  C. Utku,  Fang Wang

 Contributors to earlier versions of Q-Chem not listed above: 
 R. D. Adamson,  B. Austin,  R. Baer,  J. Baker,  G. J. O. Beran,  
 K. Brandhorst,  S. T. Brown,  E. F. C. Byrd,  A. K. Chakraborty,  
 G. K. L. Chan,  Chun-Min Chang,  Yunqing Chen,  C.-L. Cheng,  
 Siu Hung Chien,  D. M. Chipman,  D. L. Crittenden,  H. Dachsel,  
 R. J. Doerksen,  A. D. Dutoi,  R. G. Edgar,  J. Fosso-Tande,  
 L. Fusti-Molnar,  D. Ghosh,  A. Ghysels,  A. Golubeva-Zadorozhnaya,  
 J. Gonthier,  M. S. Gordon,  S. R. Gwaltney,  G. Hawkins,  J. E. Herr,  
 A. Heyden,  S. Hirata,  E. G. Hohenstein,  G. Kedziora,  F. J. Keil,  
 C. Kelley,  Jihan Kim,  R. A. King,  R. Z. Khaliullin,  P. P. Korambath,  
 W. Kurlancheek,  A. Laurent,  A. M. Lee,  M. S. Lee,  S. V. Levchenko,  
 Ching Yeh Lin,  D. Liotard,  E. Livshits,  R. C. Lochan,  I. Lotan,  
 L. A. Martinez-Martinez,  P. E. Maslen,  N. Nair,  D. P. O'Neill,  
 D. Neuhauser,  E. Neuscamman,  C. M. Oana,  R. Olivares-Amaya,  R. Olson,  
 T. M. Perrine,  B. Peters,  P. A. Pieniazek,  A. Prociuk,  Y. M. Rhee,  
 J. Ritchie,  M. A. Rohrdanz,  E. Rosta,  N. J. Russ,  H. F. Schaefer III,  
 M. W. Schmidt,  N. E. Schultz,  S. Sharma,  N. Shenvi,  C. D. Sherrill,  
 A. C. Simmonett,  A. Sodt,  T. Stein,  D. Stuck,  K. S. Thanthiriwatte,  
 V. Vanovschi,  L. Vogt,  Tao Wang,  A. Warshel,  M. A. Watson,  
 C. F. Williams,  Q. Wu,  X. Xu,  Jun Yang,  W. Zhang,  Yan Zhao

 Please cite Q-Chem as follows:
 Y. Shao et al., Mol. Phys. 113, 184-215 (2015)
 DOI: 10.1080/00268976.2014.952696

 Q-Chem 5.4.1 for Intel X86 EM64T Linux

 Parts of Q-Chem use Armadillo 9.800.1 (Horizon Scraper).
 http://arma.sourceforge.net/

 Q-Chem begins on Fri May 20 23:42:45 2022  

 Host: gadi-cpu-clx-2548.gadi.nci.org.au
0

     Scratch files written to /jobfs/40783066.gadi-pbs/qchem1837597//
 Processing $rem in /apps/qchem/5.4.1/config/preferences:
 Processing $rem in /home/561/yj5695/.qchemrc:
 Symmetry turned off for PCM/SM12/SMD calculation
 Method-specific promolecule density matrix will be built for SM12 calculation

 Checking the input file for inconsistencies... 	...done.

--------------------------------------------------------------
User input:
--------------------------------------------------------------
$molecule
0  1
C  1.0528661154  0.2543911615 -0.2461418
C -1.258214273  0.5960294203 -0.2510571333
N -2.6130062579  0.6823851425 -0.0821654896
S -0.21056221 -0.3125477344  0.7922610895
S  2.7564084251 -0.22002701 -0.0317176108
O  3.5736423069  0.9523187878 -0.3028278997
O  2.8010344217 -0.8851864817  1.2647037105
N  3.1244290425 -1.3378878344 -1.1660722932
H  3.0919874943 -0.9645067795 -2.1172076725
C -3.3083231475  0.0594097433  0.9311287897
O -2.7119635708 -0.6376665847  1.7455795461
C -4.7795399157  0.3277153916  0.9694096117
N  0.682859591  1.0120880266 -1.2240257138
N -0.6571203785  1.2206674869 -1.2363754417
H -3.1154423432  1.2566952864 -0.7570733751
H  2.5728663548 -2.1938475026 -1.075195076
H -4.9479803531  1.2157537364  1.5885547934
H -5.2834904413 -0.5221533865  1.4308663624
H -5.1852068606  0.5156251306 -0.0268643978
$end

$rem
jobtype sp
exchange M062X
basis 6-31+G*
xc_grid 1
SMX_GAS_PHASE = TRUE
solvent_method sm12
$end

$smx
solvent water
charges mk
$end
--------------------------------------------------------------
 ----------------------------------------------------------------
             Standard Nuclear Orientation (Angstroms)
    I     Atom           X                Y                Z
 ----------------------------------------------------------------
    1      C       1.0528661154     0.2543911615    -0.2461418000
    2      C      -1.2582142730     0.5960294203    -0.2510571333
    3      N      -2.6130062579     0.6823851425    -0.0821654896
    4      S      -0.2105622100    -0.3125477344     0.7922610895
    5      S       2.7564084251    -0.2200270100    -0.0317176108
    6      O       3.5736423069     0.9523187878    -0.3028278997
    7      O       2.8010344217    -0.8851864817     1.2647037105
    8      N       3.1244290425    -1.3378878344    -1.1660722932
    9      H       3.0919874943    -0.9645067795    -2.1172076725
   10      C      -3.3083231475     0.0594097433     0.9311287897
   11      O      -2.7119635708    -0.6376665847     1.7455795461
   12      C      -4.7795399157     0.3277153916     0.9694096117
   13      N       0.6828595910     1.0120880266    -1.2240257138
   14      N      -0.6571203785     1.2206674869    -1.2363754417
   15      H      -3.1154423432     1.2566952864    -0.7570733751
   16      H       2.5728663548    -2.1938475026    -1.0751950760
   17      H      -4.9479803531     1.2157537364     1.5885547934
   18      H      -5.2834904413    -0.5221533865     1.4308663624
   19      H      -5.1852068606     0.5156251306    -0.0268643978
 ----------------------------------------------------------------
 Nuclear Repulsion Energy =        1064.90175156 hartrees
 There are       57 alpha and       57 beta electrons
 Requested basis set is 6-31+G(d)
 There are 79 shells and 267 basis functions

 Total QAlloc Memory Limit   2000 MB
 Mega-Array Size       188 MB
 MEM_STATIC part       192 MB
 A cutoff of  1.0D-08 yielded   2258 shell pairs
 There are     28204 function pairs
 Smallest overlap matrix eigenvalue = 1.27E-05

 Q-Chem warning in module stvman/mkSTV.C, line 323:

 Overlap eigenvalue is smaller than square root of threshold
 Use THRESH >= 12 to get rid of this warning


 Scale SEOQF with 1.000000e-02/1.000000e-01/1.000000e-01

 Standard Electronic Orientation quadrupole field applied
 Nucleus-field energy     =    -0.0000000034 hartrees
 ================ Generating on-the-fly Promolecule Density  ================
Attempting to make child job directory: /jobfs/40783066.gadi-pbs/qchem1837597//Frg1/
Attempting to make child job directory: /jobfs/40783066.gadi-pbs/qchem1837597//Frg2/
Attempting to make child job directory: /jobfs/40783066.gadi-pbs/qchem1837597//Frg3/
Attempting to make child job directory: /jobfs/40783066.gadi-pbs/qchem1837597//Frg4/
Attempting to make child job directory: /jobfs/40783066.gadi-pbs/qchem1837597//Frg5/
Creating input file /jobfs/40783066.gadi-pbs/qchem1837597/Frg1.input
using default PutDataFrgm: nothing
calling putenv with: QCSCRATCH=/jobfs/40783066.gadi-pbs/qchem1837597/ 
Spawning Job For Fragment 0
Done Job For Fragment 0
calling putenv with: QCSCRATCH=/jobfs/40783066.gadi-pbs 
calling putenv with: QCTHREADS=16 
Creating input file /jobfs/40783066.gadi-pbs/qchem1837597/Frg2.input
using default PutDataFrgm: nothing
calling putenv with: QCSCRATCH=/jobfs/40783066.gadi-pbs/qchem1837597/ 
Spawning Job For Fragment 1
Done Job For Fragment 1
calling putenv with: QCSCRATCH=/jobfs/40783066.gadi-pbs 
calling putenv with: QCTHREADS=16 
Creating input file /jobfs/40783066.gadi-pbs/qchem1837597/Frg3.input
using default PutDataFrgm: nothing
calling putenv with: QCSCRATCH=/jobfs/40783066.gadi-pbs/qchem1837597/ 
Spawning Job For Fragment 2
Done Job For Fragment 2
calling putenv with: QCSCRATCH=/jobfs/40783066.gadi-pbs 
calling putenv with: QCTHREADS=16 
Creating input file /jobfs/40783066.gadi-pbs/qchem1837597/Frg4.input
using default PutDataFrgm: nothing
calling putenv with: QCSCRATCH=/jobfs/40783066.gadi-pbs/qchem1837597/ 
Spawning Job For Fragment 3
Done Job For Fragment 3
calling putenv with: QCSCRATCH=/jobfs/40783066.gadi-pbs 
calling putenv with: QCTHREADS=16 
Creating input file /jobfs/40783066.gadi-pbs/qchem1837597/Frg5.input
using default PutDataFrgm: nothing
calling putenv with: QCSCRATCH=/jobfs/40783066.gadi-pbs/qchem1837597/ 
Spawning Job For Fragment 4
Done Job For Fragment 4
calling putenv with: QCSCRATCH=/jobfs/40783066.gadi-pbs 
calling putenv with: QCTHREADS=16 
 Time for running child jobs:  CPU 2.45 s  wall 1.98 s
 ============= Method Specific Promolecule Density Constructed =============
 Guess from superposition of atomic densities
 Warning:  Energy on first SCF cycle will be non-variational
 SAD guess density has 114.000000 electrons

 -----------------------------------------------------------------------
  General SCF calculation program by
  Eric Jon Sundstrom, Paul Horn, Yuezhi Mao, Dmitri Zuev, Alec White,
  David Stuck, Shaama M.S., Shane Yost, Joonho Lee, David Small,
  Daniel Levine, Susi Lehtola, Hugh Burton, Evgeny Epifanovsky,
  Bang C. Huynh
 -----------------------------------------------------------------------
 Exchange:     0.5400 Hartree-Fock + 1.0000 M06-2X
 Correlation:  1.0000 M06-2X
 Using SG-1 standard quadrature grid
 using 16 threads for integral computing
 -------------------------------------------------------
 OpenMP Integral computing Module                
 Release: version 1.0, May 2013, Q-Chem Inc. Pittsburgh 
 -------------------------------------------------------
 A restricted SCF calculation will be
 performed using DIIS
 SCF converges when DIIS error is below 1.0e-05
 ---------------------------------------
  Cycle       Energy         DIIS error
 ---------------------------------------
    1   -1400.7809045502      4.78e-02  
    2   -1396.3787331476      6.62e-03  
    3   -1396.0001800552      1.03e-02  
    4   -1396.7105764652      9.50e-04  
    5   -1396.7162769814      4.70e-04  
    6   -1396.7179330491      1.14e-04  
    7   -1396.7180269259      5.07e-05  
    8   -1396.7180475047      1.69e-05  
    9   -1396.7180497628      6.78e-06  Convergence criterion met
 ---------------------------------------
 SCF time:   CPU 58.10s  wall 4.00s 
 SCF   energy in the final basis set =    -1396.7180497628
 Total energy in the final basis set =    -1396.7180497628
 Exchange:     0.5400 Hartree-Fock + 1.0000 M06-2X
 Correlation:  1.0000 M06-2X
 Using SG-1 standard quadrature grid
 
 SM12 calculation using Merz-Singh-Kollman charges
 Citation of the SM12 model:
 Marenich, A.V.; Cramer, C.J.; Truhlar, D.G.
 J. Chem. Theory Comput. 2013, 9, 609-612.
 iSolventCode=           1
 Solvent: water                                                           
 
  Building new vdw surfaces
         Merz-Kollman ESP Net Atomic Charges

     Atom                 Charge (a.u.)
  ----------------------------------------
      1 C                     0.070014
      2 C                     0.646334
      3 N                    -0.788478
      4 S                     0.048682
      5 S                     0.914791
      6 O                    -0.444925
      7 O                    -0.450424
      8 N                    -0.760481
      9 H                     0.384908
     10 C                     0.831805
     11 O                    -0.529703
     12 C                    -0.687526
     13 N                    -0.236874
     14 N                    -0.387740
     15 H                     0.405820
     16 H                     0.369178
     17 H                     0.216788
     18 H                     0.202140
     19 H                     0.195691
  ----------------------------------------
  Sum of atomic charges =     0.000000

  Related Dipole Moment =     8.3897 (X -7.7408 Y -1.5489 Z -2.8403)


 Charges (in A.U.) from Merz-Kollman fitting 
 -----------------------------------------------
 Center     Atomic                  MZ       
 Number     Number                  Charge
 -----------------------------------------------
    1          6                    0.070014
    2          6                    0.646334
    3          7                   -0.788478
    4         16                    0.048682
    5         16                    0.914791
    6          8                   -0.444925
    7          8                   -0.450424
    8          7                   -0.760481
    9          1                    0.384908
   10          6                    0.831805
   11          8                   -0.529703
   12          6                   -0.687526
   13          7                   -0.236874
   14          7                   -0.387740
   15          1                    0.405820
   16          1                    0.369178
   17          1                    0.216788
   18          1                    0.202140
   19          1                    0.195691
 -----------------------------------------------
 A restricted SCF calculation will be
 performed using Roothaan-Hall, DIIS
 SCF converges when DIIS error is below 1.0e-05
 ---------------------------------------
  Cycle       Energy         DIIS error
 ---------------------------------------
         Merz-Kollman ESP Net Atomic Charges

     Atom                 Charge (a.u.)
  ----------------------------------------
      1 C                     0.075080
      2 C                     0.712469
      3 N                    -0.781959
      4 S                     0.049465
      5 S                     0.955226
      6 O                    -0.507072
      7 O                    -0.490840
      8 N                    -0.744848
      9 H                     0.402082
     10 C                     0.868558
     11 O                    -0.599479
     12 C                    -0.683847
     13 N                    -0.282341
     14 N                    -0.430311
     15 H                     0.429156
     16 H                     0.388936
     17 H                     0.227209
     18 H                     0.200245
     19 H                     0.212271
  ----------------------------------------
  Sum of atomic charges =     0.000000

  Related Dipole Moment =    10.0387 (X -9.2749 Y -1.8697 Z -3.3551)


 Charges (in A.U.) from Merz-Kollman fitting 
 -----------------------------------------------
 Center     Atomic                  MZ       
 Number     Number                  Charge
 -----------------------------------------------
    1          6                    0.075080
    2          6                    0.712469
    3          7                   -0.781959
    4         16                    0.049465
    5         16                    0.955226
    6          8                   -0.507072
    7          8                   -0.490840
    8          7                   -0.744848
    9          1                    0.402082
   10          6                    0.868558
   11          8                   -0.599479
   12          6                   -0.683847
   13          7                   -0.282341
   14          7                   -0.430311
   15          1                    0.429156
   16          1                    0.388936
   17          1                    0.227209
   18          1                    0.200245
   19          1                    0.212271
 -----------------------------------------------
    1   -1396.7180499167      5.47e-04  Roothaan Step
 ---------------------------------------
  Cycle       Energy         DIIS error
 ---------------------------------------
         Merz-Kollman ESP Net Atomic Charges

     Atom                 Charge (a.u.)
  ----------------------------------------
      1 C                     0.075126
      2 C                     0.660826
      3 N                    -0.803532
      4 S                     0.041480
      5 S                     0.903286
      6 O                    -0.473544
      7 O                    -0.473561
      8 N                    -0.755773
      9 H                     0.403876
     10 C                     0.813706
     11 O                    -0.537756
     12 C                    -0.696641
     13 N                    -0.248004
     14 N                    -0.396690
     15 H                     0.435378
     16 H                     0.387293
     17 H                     0.237391
     18 H                     0.208681
     19 H                     0.218458
  ----------------------------------------
  Sum of atomic charges =     0.000000

  Related Dipole Moment =     9.7680 (X -9.0565 Y -1.6318 Z -3.2758)


 Charges (in A.U.) from Merz-Kollman fitting 
 -----------------------------------------------
 Center     Atomic                  MZ       
 Number     Number                  Charge
 -----------------------------------------------
    1          6                    0.075126
    2          6                    0.660826
    3          7                   -0.803532
    4         16                    0.041480
    5         16                    0.903286
    6          8                   -0.473544
    7          8                   -0.473561
    8          7                   -0.755773
    9          1                    0.403876
   10          6                    0.813706
   11          8                   -0.537756
   12          6                   -0.696641
   13          7                   -0.248004
   14          7                   -0.396690
   15          1                    0.435378
   16          1                    0.387293
   17          1                    0.237391
   18          1                    0.208681
   19          1                    0.218458
 -----------------------------------------------
    1   -1396.7093221002      4.70e-04  
         Merz-Kollman ESP Net Atomic Charges

     Atom                 Charge (a.u.)
  ----------------------------------------
      1 C                     0.082889
      2 C                     0.695067
      3 N                    -0.791232
      4 S                     0.045869
      5 S                     0.945043
      6 O                    -0.500216
      7 O                    -0.488927
      8 N                    -0.751506
      9 H                     0.403423
     10 C                     0.848758
     11 O                    -0.578895
     12 C                    -0.695854
     13 N                    -0.273176
     14 N                    -0.423188
     15 H                     0.433019
     16 H                     0.388403
     17 H                     0.235485
     18 H                     0.206737
     19 H                     0.218301
  ----------------------------------------
  Sum of atomic charges =     0.000000

  Related Dipole Moment =    10.0546 (X -9.3279 Y -1.7898 Z -3.2988)


 Charges (in A.U.) from Merz-Kollman fitting 
 -----------------------------------------------
 Center     Atomic                  MZ       
 Number     Number                  Charge
 -----------------------------------------------
    1          6                    0.082889
    2          6                    0.695067
    3          7                   -0.791232
    4         16                    0.045869
    5         16                    0.945043
    6          8                   -0.500216
    7          8                   -0.488927
    8          7                   -0.751506
    9          1                    0.403423
   10          6                    0.848758
   11          8                   -0.578895
   12          6                   -0.695854
   13          7                   -0.273176
   14          7                   -0.423188
   15          1                    0.433019
   16          1                    0.388403
   17          1                    0.235485
   18          1                    0.206737
   19          1                    0.218301
 -----------------------------------------------
    2   -1396.7114752862      6.58e-04  
         Merz-Kollman ESP Net Atomic Charges

     Atom                 Charge (a.u.)
  ----------------------------------------
      1 C                     0.075130
      2 C                     0.697489
      3 N                    -0.792193
      4 S                     0.046018
      5 S                     0.941003
      6 O                    -0.499710
      7 O                    -0.488981
      8 N                    -0.748873
      9 H                     0.403799
     10 C                     0.846438
     11 O                    -0.576681
     12 C                    -0.695653
     13 N                    -0.269834
     14 N                    -0.422104
     15 H                     0.433477
     16 H                     0.388710
     17 H                     0.236013
     18 H                     0.206989
     19 H                     0.218964
  ----------------------------------------
  Sum of atomic charges =     0.000000

  Related Dipole Moment =    10.1279 (X -9.3978 Y -1.7884 Z -3.3252)


 Charges (in A.U.) from Merz-Kollman fitting 
 -----------------------------------------------
 Center     Atomic                  MZ       
 Number     Number                  Charge
 -----------------------------------------------
    1          6                    0.075130
    2          6                    0.697489
    3          7                   -0.792193
    4         16                    0.046018
    5         16                    0.941003
    6          8                   -0.499710
    7          8                   -0.488981
    8          7                   -0.748873
    9          1                    0.403799
   10          6                    0.846438
   11          8                   -0.576681
   12          6                   -0.695653
   13          7                   -0.269834
   14          7                   -0.422104
   15          1                    0.433477
   16          1                    0.388710
   17          1                    0.236013
   18          1                    0.206989
   19          1                    0.218964
 -----------------------------------------------
    3   -1396.7111974245      4.43e-05  
         Merz-Kollman ESP Net Atomic Charges

     Atom                 Charge (a.u.)
  ----------------------------------------
      1 C                     0.080343
      2 C                     0.695342
      3 N                    -0.791279
      4 S                     0.045786
      5 S                     0.941251
      6 O                    -0.499963
      7 O                    -0.488955
      8 N                    -0.750554
      9 H                     0.404082
     10 C                     0.846281
     11 O                    -0.577092
     12 C                    -0.696464
     13 N                    -0.271615
     14 N                    -0.423089
     15 H                     0.433566
     16 H                     0.388911
     17 H                     0.236632
     18 H                     0.207426
     19 H                     0.219392
  ----------------------------------------
  Sum of atomic charges =     0.000000

  Related Dipole Moment =    10.1274 (X -9.4030 Y -1.7894 Z -3.3083)


 Charges (in A.U.) from Merz-Kollman fitting 
 -----------------------------------------------
 Center     Atomic                  MZ       
 Number     Number                  Charge
 -----------------------------------------------
    1          6                    0.080343
    2          6                    0.695342
    3          7                   -0.791279
    4         16                    0.045786
    5         16                    0.941251
    6          8                   -0.499963
    7          8                   -0.488955
    8          7                   -0.750554
    9          1                    0.404082
   10          6                    0.846281
   11          8                   -0.577092
   12          6                   -0.696464
   13          7                   -0.271615
   14          7                   -0.423089
   15          1                    0.433566
   16          1                    0.388911
   17          1                    0.236632
   18          1                    0.207426
   19          1                    0.219392
 -----------------------------------------------
    4   -1396.7109965816      2.77e-05  
    5   -1396.7109334803      6.58e-06  Convergence criterion met
 ---------------------------------------
 SCF time:   CPU 61.76s  wall 4.00s 
(0)  E-EN(g) gas-phase elect-nuc energy                -1396.718049763 a.u.
(1)  E-EN(liq) elect-nuc energy of solute              -1396.710933480 a.u.
(2)  G-P(liq) polarization free energy of solvation           -26.9747 kcal/mol
(3)  G-ENP(liq) elect-nuc-pol free energy of system    -1396.753920367 a.u.
(4)  G-CDS(liq) cavity-dispersion-solvent structure 
     free energy                                                2.1736 kcal/mol
(5)  G-P-CDS(liq) = G-P(liq) + G-CDS(liq) = (2) + (4)         -24.8010 kcal/mol
(6)  G-S(liq) free energy of system = (1) + (5)        -1396.750456448 a.u.
(7)  DeltaE-EN(liq) elect-nuc reorganization
     energy of solute molecule (7) = (1) - (0)                  4.4655 kcal/mol
(8)  DeltaG-ENP(liq) elect-nuc-pol free energy
     of solvation (8) = (3) - (0)                             -22.5091 kcal/mol
(9)  DeltaG-S(liq) free energy of  solvation
     (9) = (6) - (0)                                          -20.3355 kcal/mol
 SCF   energy in the final basis set =    -1396.7504564481
 Total energy in the final basis set =    -1396.7504564481
 
 --------------------------------------------------------------
 
                    Orbital Energies (a.u.)
 --------------------------------------------------------------
 
 Alpha MOs
 -- Occupied --
-90.1984 -90.0067 -19.6724 -19.6717 -19.6542 -14.8431 -14.8382 -14.8224
-14.8184 -10.6947 -10.6938 -10.6592 -10.5604  -8.5065  -8.3491  -6.4286
 -6.4280  -6.4277  -6.2681  -6.2671  -6.2641  -1.2768  -1.2085  -1.1870
 -1.1616  -1.0908  -1.0484  -0.9616  -0.9395  -0.8593  -0.8067  -0.7468
 -0.7121  -0.6851  -0.6642  -0.6298  -0.6091  -0.5885  -0.5754  -0.5693
 -0.5494  -0.5379  -0.5315  -0.5128  -0.4776  -0.4679  -0.4523  -0.4393
 -0.4354  -0.4281  -0.4136  -0.4057  -0.3908  -0.3805  -0.3771  -0.3616
 -0.3263
 -- Virtual --
 -0.0412  -0.0087   0.0054   0.0087   0.0308   0.0374   0.0397   0.0443
  0.0565   0.0575   0.0628   0.0637   0.0672   0.0739   0.0787   0.0859
  0.0915   0.0987   0.1010   0.1031   0.1045   0.1195   0.1272   0.1284
  0.1383   0.1449   0.1499   0.1547   0.1589   0.1686   0.1776   0.1853
  0.1872   0.1933   0.1974   0.2025   0.2149   0.2166   0.2228   0.2263
  0.2298   0.2332   0.2419   0.2457   0.2562   0.2595   0.2665   0.2726
  0.2807   0.2816   0.2938   0.2986   0.3066   0.3086   0.3137   0.3187
  0.3241   0.3264   0.3325   0.3510   0.3545   0.3623   0.3671   0.3834
  0.3875   0.3942   0.4109   0.4188   0.4215   0.4310   0.4432   0.4609
  0.4991   0.5154   0.5190   0.5538   0.5763   0.5819   0.6123   0.6282
  0.6467   0.6524   0.6763   0.7004   0.7040   0.7197   0.7401   0.7522
  0.7589   0.7687   0.7855   0.8434   0.8585   0.8928   0.9018   0.9090
  0.9263   0.9521   0.9813   0.9926   0.9999   1.0177   1.0237   1.0256
  1.0399   1.0402   1.0485   1.0611   1.0738   1.0918   1.0980   1.1119
  1.1189   1.1282   1.1366   1.1411   1.1679   1.1748   1.1817   1.2002
  1.2373   1.2571   1.2752   1.2957   1.3081   1.3118   1.3366   1.3463
  1.3508   1.3635   1.3750   1.3788   1.3928   1.3959   1.4237   1.4312
  1.4607   1.4697   1.5090   1.5112   1.5212   1.5713   1.5997   1.6196
  1.6631   1.7159   1.7249   1.7484   1.7534   1.7658   1.7898   1.8214
  1.8348   1.8411   1.8578   1.8650   1.8916   1.9184   1.9280   1.9561
  1.9635   1.9991   2.0072   2.0219   2.0966   2.1195   2.1342   2.1397
  2.1565   2.1615   2.2511   2.2656   2.2894   2.3071   2.3283   2.3510
  2.3632   2.3757   2.4188   2.4450   2.4579   2.4688   2.4885   2.5016
  2.5645   2.5757   2.6850   2.7846   2.7946   2.8296   2.8859   2.9236
  2.9487   3.0581   3.0947   3.1687   3.2564   3.8645   3.9756   4.0325
  4.0910   4.1480   4.1829   4.2227   4.2978   4.3224   4.3485   4.4152
  4.4446   4.6045
 --------------------------------------------------------------
 
          Ground-State Mulliken Net Atomic Charges

     Atom                 Charge (a.u.)
  ----------------------------------------
      1 C                    -0.925422
      2 C                    -0.147864
      3 N                    -0.249264
      4 S                     0.980793
      5 S                     1.233005
      6 O                    -0.704801
      7 O                    -0.710915
      8 N                    -0.778653
      9 H                     0.510713
     10 C                     0.589870
     11 O                    -0.729227
     12 C                    -0.418597
     13 N                    -0.370725
     14 N                    -0.173304
     15 H                     0.543632
     16 H                     0.512718
     17 H                     0.298328
     18 H                     0.263178
     19 H                     0.276533
  ----------------------------------------
  Sum of atomic charges =     0.000000

         Merz-Kollman ESP Net Atomic Charges

     Atom                 Charge (a.u.)
  ----------------------------------------
      1 C                     0.079191
      2 C                     0.696129
      3 N                    -0.791431
      4 S                     0.045585
      5 S                     0.942203
      6 O                    -0.500259
      7 O                    -0.489272
      8 N                    -0.750376
      9 H                     0.403964
     10 C                     0.846322
     11 O                    -0.577131
     12 C                    -0.696915
     13 N                    -0.271092
     14 N                    -0.423197
     15 H                     0.433539
     16 H                     0.388778
     17 H                     0.236814
     18 H                     0.207589
     19 H                     0.219559
  ----------------------------------------
  Sum of atomic charges =     0.000000

  Related Dipole Moment =    10.1334 (X -9.4089 Y -1.7867 Z -3.3114)

 -----------------------------------------------------------------
                    Cartesian Multipole Moments
 -----------------------------------------------------------------
    Charge (ESU x 10^10)
                 0.0000
    Dipole Moment (Debye)
         X      -9.3886      Y      -1.7822      Z      -3.2380
       Tot      10.0899
    Quadrupole Moments (Debye-Ang)
        XX     -78.2444     XY     -16.7253     YY     -89.5999
        XZ      -6.9972     YZ      12.4260     ZZ     -94.4725
    Octopole Moments (Debye-Ang^2)
       XXX    -243.4103    XXY       6.5754    XYY     -12.7095
       YYY     -31.2725    XXZ     -34.9840    XYZ      11.3025
       YYZ     -13.6719    XZZ       7.3349    YZZ      -9.1396
       ZZZ     -50.5869
    Hexadecapole Moments (Debye-Ang^3)
      XXXX   -3383.1481   XXXY     -16.4873   XXYY    -686.0449
      XYYY     104.8036   YYYY    -366.5159   XXXZ     150.0664
      XXYZ      82.8550   XYYZ      74.6524   YYYZ      92.7158
      XXZZ    -685.4820   XYZZ      15.9332   YYZZ    -160.1865
      XZZZ     232.5614   YZZZ     105.7610   ZZZZ    -561.1166
 -----------------------------------------------------------------
 Total job time:  10.04s(wall), 128.51s(cpu) 
 Fri May 20 23:42:55 2022

        *************************************************************
        *                                                           *
        *  Thank you very much for using Q-Chem.  Have a nice day.  *
        *                                                           *
        *************************************************************


