                  Welcome to Q-Chem
     A Quantum Leap Into The Future Of Chemistry


 Q-Chem 5.4 (devel), Q-Chem, Inc., Pleasanton, CA (2021)

 E. Epifanovsky,  A. T. B. Gilbert,  Xintian Feng,  Joonho Lee,  Yuezhi Mao,  
 N. Mardirossian,  P. Pokhilko,  A. White,  M. Wormit,  M. P. Coons,  
 A. L. Dempwolff,  Zhengting Gan,  D. Hait,  P. R. Horn,  L. D. Jacobson,  
 I. Kaliman,  J. Kussmann,  A. W. Lange,  Ka Un Lao,  D. S. Levine,  Jie Liu,  
 S. C. McKenzie,  A. F. Morrison,  K. Nanda,  F. Plasser,  D. R. Rehn,  
 M. L. Vidal,  Zhi-Qiang You,  Ying Zhu,  B. Alam,  B. Albrecht,  
 A. Aldossary,  E. Alguire,  J. H. Andersen,  D. Barton,  K. Begam,  A. Behn,  
 Y. A. Bernard,  E. J. Berquist,  H. Burton,  A. Carreras,  K. Carter-Fenk,  
 R. Chakraborty,  A. D. Chien,  K. D. Closser,  V. Cofer-Shabica,  
 S. Dasgupta,  Jia Deng,  M. de Wergifosse,  M. Diedenhofen,  Hainam Do,  
 S. Ehlert,  Po-Tung Fang,  S. Fatehi,  Qingguo Feng,  T. Friedhoff,  
 J. Gayvert,  Qinghui Ge,  G. Gidofalvi,  M. Goldey,  J. Gomes,  
 C. Gonzalez-Espinoza,  S. Gulania,  A. Gunina,  M. W. D. Hanson-Heine,  
 P. H. P. Harbach,  A. W. Hauser,  M. F. Herbst,  M. Hernandez Vera,  
 M. Hodecker,  Z. C. Holden,  S. Houck,  Xunkun Huang,  Kerwin Hui,  
 B. C. Huynh,  M. Ivanov,  Hyunjun Ji,  Hanjie Jiang,  B. Kaduk,  S. Kaehler,  
 K. Khistyaev,  Jaehoon Kim,  P. Klunzinger,  Z. Koczor-Benda,  
 Joong Hoon Koh,  D. Kosenkov,  L. Koulias,  T. Kowalczyk,  C. M. Krauter,  
 K. Kue,  A. Kunitsa,  T. Kus,  A. Landau,  K. V. Lawler,  D. Lefrancois,  
 S. Lehtola,  Rain Li,  Yi-Pei Li,  Jiashu Liang,  M. Liebenthal,  
 Hung-Hsuan Lin,  You-Sheng Lin,  Fenglai Liu,  Kuan-Yu Liu,  
 M. Loipersberger,  A. Luenser,  A. Manjanath,  P. Manohar,  E. Mansoor,  
 S. F. Manzer,  Shan-Ping Mao,  A. V. Marenich,  T. Markovich,  S. Mason,  
 S. A. Maurer,  P. F. McLaughlin,  M. F. S. J. Menger,  J.-M. Mewes,  
 S. A. Mewes,  P. Morgante,  J. W. Mullinax,  K. J. Oosterbaan,  G. Paran,  
 Alexander C. Paul,  Suranjan K. Paul,  F. Pavosevic,  Zheng Pei,  S. Prager,  
 E. I. Proynov,  E. Ramos,  B. Rana,  A. E. Rask,  A. Rettig,  R. M. Richard,  
 F. Rob,  E. Rossomme,  T. Scheele,  M. Scheurer,  M. Schneider,  
 N. Sergueev,  S. M. Sharada,  W. Skomorowski,  D. W. Small,  C. J. Stein,  
 Yu-Chuan Su,  E. J. Sundstrom,  Zhen Tao,  J. Thirman,  T. Tsuchimochi,  
 N. M. Tubman,  S. P. Veccham,  O. Vydrov,  J. Wenzel,  J. Witte,  A. Yamada,  
 Kun Yao,  S. Yeganeh,  S. R. Yost,  A. Zech,  Igor Ying Zhang,  Xing Zhang,  
 Yu Zhang,  D. Zuev,  A. Aspuru-Guzik,  A. T. Bell,  N. A. Besley,  
 K. B. Bravaya,  B. R. Brooks,  D. Casanova,  Jeng-Da Chai,  S. Coriani,  
 C. J. Cramer,  A. E. DePrince, III,  R. A. DiStasio Jr.,  A. Dreuw,  
 B. D. Dunietz,  T. R. Furlani,  W. A. Goddard III,  S. Grimme,  
 S. Hammes-Schiffer,  T. Head-Gordon,  W. J. Hehre,  Chao-Ping Hsu,  
 T.-C. Jagau,  Yousung Jung,  A. Klamt,  Jing Kong,  D. S. Lambrecht,  
 WanZhen Liang,  N. J. Mayhall,  C. W. McCurdy,  J. B. Neaton,  
 C. Ochsenfeld,  J. A. Parkhill,  R. Peverati,  V. A. Rassolov,  Yihan Shao,  
 L. V. Slipchenko,  T. Stauch,  R. P. Steele,  J. E. Subotnik,  
 A. J. W. Thom,  A. Tkatchenko,  D. G. Truhlar,  T. Van Voorhis,  
 T. A. Wesolowski,  K. B. Whaley,  H. L. Woodcock III,  P. M. Zimmerman,  
 S. Faraji,  P. M. W. Gill,  M. Head-Gordon,  J. M. Herbert,  A. I. Krylov

 Additional authors for Version 5.4.1: 
 S. Kotaru,  Shaozhi Li,  Xiangyuan Li,  F. Matz,  A. Molle,  Haisheng Ren,  
 Yingli Su,  Hung-Yi Tsai,  C. Utku,  Fang Wang

 Contributors to earlier versions of Q-Chem not listed above: 
 R. D. Adamson,  B. Austin,  R. Baer,  J. Baker,  G. J. O. Beran,  
 K. Brandhorst,  S. T. Brown,  E. F. C. Byrd,  A. K. Chakraborty,  
 G. K. L. Chan,  Chun-Min Chang,  Yunqing Chen,  C.-L. Cheng,  
 Siu Hung Chien,  D. M. Chipman,  D. L. Crittenden,  H. Dachsel,  
 R. J. Doerksen,  A. D. Dutoi,  R. G. Edgar,  J. Fosso-Tande,  
 L. Fusti-Molnar,  D. Ghosh,  A. Ghysels,  A. Golubeva-Zadorozhnaya,  
 J. Gonthier,  M. S. Gordon,  S. R. Gwaltney,  G. Hawkins,  J. E. Herr,  
 A. Heyden,  S. Hirata,  E. G. Hohenstein,  G. Kedziora,  F. J. Keil,  
 C. Kelley,  Jihan Kim,  R. A. King,  R. Z. Khaliullin,  P. P. Korambath,  
 W. Kurlancheek,  A. Laurent,  A. M. Lee,  M. S. Lee,  S. V. Levchenko,  
 Ching Yeh Lin,  D. Liotard,  E. Livshits,  R. C. Lochan,  I. Lotan,  
 L. A. Martinez-Martinez,  P. E. Maslen,  N. Nair,  D. P. O'Neill,  
 D. Neuhauser,  E. Neuscamman,  C. M. Oana,  R. Olivares-Amaya,  R. Olson,  
 T. M. Perrine,  B. Peters,  P. A. Pieniazek,  A. Prociuk,  Y. M. Rhee,  
 J. Ritchie,  M. A. Rohrdanz,  E. Rosta,  N. J. Russ,  H. F. Schaefer III,  
 M. W. Schmidt,  N. E. Schultz,  S. Sharma,  N. Shenvi,  C. D. Sherrill,  
 A. C. Simmonett,  A. Sodt,  T. Stein,  D. Stuck,  K. S. Thanthiriwatte,  
 V. Vanovschi,  L. Vogt,  Tao Wang,  A. Warshel,  M. A. Watson,  
 C. F. Williams,  Q. Wu,  X. Xu,  Jun Yang,  W. Zhang,  Yan Zhao

 Please cite Q-Chem as follows:
 Y. Shao et al., Mol. Phys. 113, 184-215 (2015)
 DOI: 10.1080/00268976.2014.952696

 Q-Chem 5.4.1 for Intel X86 EM64T Linux

 Parts of Q-Chem use Armadillo 9.800.1 (Horizon Scraper).
 http://arma.sourceforge.net/

 Q-Chem begins on Thu Jun 23 16:17:18 2022  

 Host: gadi-cpu-clx-2263.gadi.nci.org.au
0

     Scratch files written to /jobfs/45201778.gadi-pbs/qchem1654363//
 Processing $rem in /apps/qchem/5.4.1/config/preferences:
 Processing $rem in /home/561/yj5695/.qchemrc:
 Symmetry turned off for PCM/SM12/SMD calculation
 Method-specific promolecule density matrix will be built for SM12 calculation

 Checking the input file for inconsistencies... 	...done.

--------------------------------------------------------------
User input:
--------------------------------------------------------------
$molecule
0  1
C  1.125142765  0.4053176901 -0.2353513417
C -1.1599755486  0.9320337518  0.0390775985
N -2.4742508282  1.0075375865  0.3043866164
S -0.1240090778 -0.2765501542  0.7592001599
S  2.811577113 -0.1495914546 -0.1719525141
O  2.7613466058 -1.4494845586  0.4876329663
O  3.3669622866 -0.005262813 -1.5088845288
N  3.6545409705  0.8527947989  0.8098312628
H  3.3169354438  0.8347269325  1.7745091029
N  0.7594351161  1.3943887297 -0.975615504
N -0.5497815863  1.7109610883 -0.8367221005
H -2.8496635028  0.5865204097  1.1465392123
H  3.7101192898  1.806835816  0.4469349963
H -2.9591240467  1.8313481769 -0.0385289263
$end

$rem
jobtype sp
exchange M062X
basis 6-31+G*
SMX_GAS_PHASE = TRUE
solvent_method sm12
$end

$smx
solvent water
charges mk
$end
--------------------------------------------------------------
 ----------------------------------------------------------------
             Standard Nuclear Orientation (Angstroms)
    I     Atom           X                Y                Z
 ----------------------------------------------------------------
    1      C       1.1251427650     0.4053176901    -0.2353513417
    2      C      -1.1599755486     0.9320337518     0.0390775985
    3      N      -2.4742508282     1.0075375865     0.3043866164
    4      S      -0.1240090778    -0.2765501542     0.7592001599
    5      S       2.8115771130    -0.1495914546    -0.1719525141
    6      O       2.7613466058    -1.4494845586     0.4876329663
    7      O       3.3669622866    -0.0052628130    -1.5088845288
    8      N       3.6545409705     0.8527947989     0.8098312628
    9      H       3.3169354438     0.8347269325     1.7745091029
   10      N       0.7594351161     1.3943887297    -0.9756155040
   11      N      -0.5497815863     1.7109610883    -0.8367221005
   12      H      -2.8496635028     0.5865204097     1.1465392123
   13      H       3.7101192898     1.8068358160     0.4469349963
   14      H      -2.9591240467     1.8313481769    -0.0385289263
 ----------------------------------------------------------------
 Nuclear Repulsion Energy =         763.92385016 hartrees
 There are       46 alpha and       46 beta electrons
 Requested basis set is 6-31+G(d)
 There are 60 shells and 206 basis functions

 Total QAlloc Memory Limit   2000 MB
 Mega-Array Size       188 MB
 MEM_STATIC part       192 MB

                       Distance Matrix (Angstroms)
             C (  1)   C (  2)   N (  3)   S (  4)   S (  5)   O (  6)
   C (  2)  2.361039
   N (  3)  3.689122  1.342911
   S (  4)  1.736219  1.747134  2.716500
   S (  5)  1.776515  4.121611  5.431926  3.082342
   O (  6)  2.576851  4.609729  5.786365  3.126468  1.458526
   O (  7)  2.610789  4.875231  6.199475  4.171892  1.454878  2.537445
   N (  8)  2.773175  4.876465  6.151545  3.944037  1.636846  2.490401
   H (  9)  3.004644  4.802491  5.977371  3.755781  2.238969  2.679991
   N ( 10)  1.288408  2.219800  3.499255  2.565560  2.690917  3.773110
   N ( 11)  2.207198  1.321397  2.345318  2.584270  3.899014  4.765071
   H ( 12)  4.212071  2.049609  1.013613  2.885154  5.859175  6.005240
   H ( 13)  3.018588  4.964821  6.237438  4.374763  2.240091  3.391968
   H ( 14)  4.330535  2.012890  1.015557  3.621807  6.102697  6.615474
             O (  7)   N (  8)   H (  9)   N ( 10)   N ( 11)   H ( 12)
   N (  8)  2.489058
   H (  9)  3.389507  1.022207
   N ( 10)  3.007091  3.444239  3.797001
   N ( 11)  4.328754  4.596076  4.747401  1.354089
   H ( 12)  6.785862  6.518355  6.203458  4.264010  3.238387
   H ( 13)  2.688250  1.022241  1.691757  3.301560  4.450137  6.708902
   H ( 14)  6.749404  6.739276  6.608274  3.859630  2.540972  1.722198
             H ( 13)
   H ( 14)  6.686934
 
 A cutoff of  1.0D-08 yielded   1472 shell pairs
 There are     18734 function pairs
 Smallest overlap matrix eigenvalue = 2.70E-05

 Q-Chem warning in module stvman/mkSTV.C, line 323:

 Overlap eigenvalue is smaller than square root of threshold
 Use THRESH >= 12 to get rid of this warning


 Scale SEOQF with 1.000000e-01/1.000000e-01/1.000000e-01

 Standard Electronic Orientation quadrupole field applied
 Nucleus-field energy     =     0.0000000172 hartrees
 ================ Generating on-the-fly Promolecule Density  ================
Attempting to make child job directory: /jobfs/45201778.gadi-pbs/qchem1654363//Frg1/
Attempting to make child job directory: /jobfs/45201778.gadi-pbs/qchem1654363//Frg2/
Attempting to make child job directory: /jobfs/45201778.gadi-pbs/qchem1654363//Frg3/
Attempting to make child job directory: /jobfs/45201778.gadi-pbs/qchem1654363//Frg4/
Attempting to make child job directory: /jobfs/45201778.gadi-pbs/qchem1654363//Frg5/
Creating input file /jobfs/45201778.gadi-pbs/qchem1654363/Frg1.input
using default PutDataFrgm: nothing
calling putenv with: QCSCRATCH=/jobfs/45201778.gadi-pbs/qchem1654363/ 
Spawning Job For Fragment 0
Done Job For Fragment 0
calling putenv with: QCSCRATCH=/jobfs/45201778.gadi-pbs 
calling putenv with: QCTHREADS=16 
Creating input file /jobfs/45201778.gadi-pbs/qchem1654363/Frg2.input
using default PutDataFrgm: nothing
calling putenv with: QCSCRATCH=/jobfs/45201778.gadi-pbs/qchem1654363/ 
Spawning Job For Fragment 1
Done Job For Fragment 1
calling putenv with: QCSCRATCH=/jobfs/45201778.gadi-pbs 
calling putenv with: QCTHREADS=16 
Creating input file /jobfs/45201778.gadi-pbs/qchem1654363/Frg3.input
using default PutDataFrgm: nothing
calling putenv with: QCSCRATCH=/jobfs/45201778.gadi-pbs/qchem1654363/ 
Spawning Job For Fragment 2
Done Job For Fragment 2
calling putenv with: QCSCRATCH=/jobfs/45201778.gadi-pbs 
calling putenv with: QCTHREADS=16 
Creating input file /jobfs/45201778.gadi-pbs/qchem1654363/Frg4.input
using default PutDataFrgm: nothing
calling putenv with: QCSCRATCH=/jobfs/45201778.gadi-pbs/qchem1654363/ 
Spawning Job For Fragment 3
Done Job For Fragment 3
calling putenv with: QCSCRATCH=/jobfs/45201778.gadi-pbs 
calling putenv with: QCTHREADS=16 
Creating input file /jobfs/45201778.gadi-pbs/qchem1654363/Frg5.input
using default PutDataFrgm: nothing
calling putenv with: QCSCRATCH=/jobfs/45201778.gadi-pbs/qchem1654363/ 
Spawning Job For Fragment 4
Done Job For Fragment 4
calling putenv with: QCSCRATCH=/jobfs/45201778.gadi-pbs 
calling putenv with: QCTHREADS=16 
 Time for running child jobs:  CPU 2.45 s  wall 2.29 s
 ============= Method Specific Promolecule Density Constructed =============
 Guess from superposition of atomic densities
 Warning:  Energy on first SCF cycle will be non-variational
 SAD guess density has 92.000000 electrons

 -----------------------------------------------------------------------
  General SCF calculation program by
  Eric Jon Sundstrom, Paul Horn, Yuezhi Mao, Dmitri Zuev, Alec White,
  David Stuck, Shaama M.S., Shane Yost, Joonho Lee, David Small,
  Daniel Levine, Susi Lehtola, Hugh Burton, Evgeny Epifanovsky,
  Bang C. Huynh
 -----------------------------------------------------------------------
 Exchange:     0.5400 Hartree-Fock + 1.0000 M06-2X
 Correlation:  1.0000 M06-2X
 Using SG-3 standard quadrature grid
 using 16 threads for integral computing
 -------------------------------------------------------
 OpenMP Integral computing Module                
 Release: version 1.0, May 2013, Q-Chem Inc. Pittsburgh 
 -------------------------------------------------------
 A restricted SCF calculation will be
 performed using DIIS
 SCF converges when DIIS error is below 1.0e-05
 ---------------------------------------
  Cycle       Energy         DIIS error
 ---------------------------------------
    1   -1247.3216660862      5.52e-02  
    2   -1243.8322723449      7.62e-03  
    3   -1243.5303292058      1.18e-02  
    4   -1244.0898040831      1.26e-03  
    5   -1244.0956367542      6.49e-04  
    6   -1244.0975545465      1.69e-04  
    7   -1244.0976816905      5.93e-05  
    8   -1244.0976997586      1.42e-05  
    9   -1244.0977009448      8.06e-06  Convergence criterion met
 ---------------------------------------
 SCF time:   CPU 56.45s  wall 3.00s 
 SCF   energy in the final basis set =    -1244.0977009448
 Total energy in the final basis set =    -1244.0977009448
 Exchange:     0.5400 Hartree-Fock + 1.0000 M06-2X
 Correlation:  1.0000 M06-2X
 Using SG-3 standard quadrature grid
 
 SM12 calculation using Merz-Singh-Kollman charges
 Citation of the SM12 model:
 Marenich, A.V.; Cramer, C.J.; Truhlar, D.G.
 J. Chem. Theory Comput. 2013, 9, 609-612.
 iSolventCode=           1
 Solvent: water                                                           
 
  Building new vdw surfaces
         Merz-Kollman ESP Net Atomic Charges

     Atom                 Charge (a.u.)
  ----------------------------------------
      1 C                     0.177750
      2 C                     0.466926
      3 N                    -0.763138
      4 S                    -0.035818
      5 S                     0.865835
      6 O                    -0.447538
      7 O                    -0.437082
      8 N                    -0.726352
      9 H                     0.350266
     10 N                    -0.269074
     11 N                    -0.319081
     12 H                     0.397598
     13 H                     0.371126
     14 H                     0.368583
  ----------------------------------------
  Sum of atomic charges =     0.000000

  Related Dipole Moment =     8.2373 (X -5.2377 Y  2.8834 Z  5.6662)


 Charges (in A.U.) from Merz-Kollman fitting 
 -----------------------------------------------
 Center     Atomic                  MZ       
 Number     Number                  Charge
 -----------------------------------------------
    1          6                    0.177750
    2          6                    0.466926
    3          7                   -0.763138
    4         16                   -0.035818
    5         16                    0.865835
    6          8                   -0.447538
    7          8                   -0.437082
    8          7                   -0.726352
    9          1                    0.350266
   10          7                   -0.269074
   11          7                   -0.319081
   12          1                    0.397598
   13          1                    0.371126
   14          1                    0.368583
 -----------------------------------------------
 A restricted SCF calculation will be
 performed using Roothaan-Hall, DIIS
 SCF converges when DIIS error is below 1.0e-05
 ---------------------------------------
  Cycle       Energy         DIIS error
 ---------------------------------------
         Merz-Kollman ESP Net Atomic Charges

     Atom                 Charge (a.u.)
  ----------------------------------------
      1 C                     0.189131
      2 C                     0.478765
      3 N                    -0.712198
      4 S                     0.009137
      5 S                     0.895550
      6 O                    -0.483905
      7 O                    -0.500723
      8 N                    -0.705320
      9 H                     0.368019
     10 N                    -0.329661
     11 N                    -0.382427
     12 H                     0.413033
     13 H                     0.386839
     14 H                     0.373761
  ----------------------------------------
  Sum of atomic charges =     0.000000

  Related Dipole Moment =     9.9895 (X -6.3911 Y  2.8352 Z  7.1349)


 Charges (in A.U.) from Merz-Kollman fitting 
 -----------------------------------------------
 Center     Atomic                  MZ       
 Number     Number                  Charge
 -----------------------------------------------
    1          6                    0.189131
    2          6                    0.478765
    3          7                   -0.712198
    4         16                    0.009137
    5         16                    0.895550
    6          8                   -0.483905
    7          8                   -0.500723
    8          7                   -0.705320
    9          1                    0.368019
   10          7                   -0.329661
   11          7                   -0.382427
   12          1                    0.413033
   13          1                    0.386839
   14          1                    0.373761
 -----------------------------------------------
    1   -1244.0977013655      6.85e-04  Roothaan Step
 ---------------------------------------
  Cycle       Energy         DIIS error
 ---------------------------------------
         Merz-Kollman ESP Net Atomic Charges

     Atom                 Charge (a.u.)
  ----------------------------------------
      1 C                     0.192628
      2 C                     0.426658
      3 N                    -0.708284
      4 S                    -0.039808
      5 S                     0.836297
      6 O                    -0.468551
      7 O                    -0.464980
      8 N                    -0.714840
      9 H                     0.365519
     10 N                    -0.275626
     11 N                    -0.326721
     12 H                     0.413257
     13 H                     0.388308
     14 H                     0.376143
  ----------------------------------------
  Sum of atomic charges =     0.000000

  Related Dipole Moment =     9.5006 (X -6.2854 Y  3.4325 Z  6.2428)


 Charges (in A.U.) from Merz-Kollman fitting 
 -----------------------------------------------
 Center     Atomic                  MZ       
 Number     Number                  Charge
 -----------------------------------------------
    1          6                    0.192628
    2          6                    0.426658
    3          7                   -0.708284
    4         16                   -0.039808
    5         16                    0.836297
    6          8                   -0.468551
    7          8                   -0.464980
    8          7                   -0.714840
    9          1                    0.365519
   10          7                   -0.275626
   11          7                   -0.326721
   12          1                    0.413257
   13          1                    0.388308
   14          1                    0.376143
 -----------------------------------------------
    1   -1244.0887314613      5.86e-04  
         Merz-Kollman ESP Net Atomic Charges

     Atom                 Charge (a.u.)
  ----------------------------------------
      1 C                     0.207448
      2 C                     0.451641
      3 N                    -0.698670
      4 S                    -0.015494
      5 S                     0.882538
      6 O                    -0.483019
      7 O                    -0.494404
      8 N                    -0.710852
      9 H                     0.366723
     10 N                    -0.314860
     11 N                    -0.365916
     12 H                     0.412724
     13 H                     0.387590
     14 H                     0.374551
  ----------------------------------------
  Sum of atomic charges =     0.000000

  Related Dipole Moment =     9.8883 (X -6.4498 Y  3.0702 Z  6.8376)


 Charges (in A.U.) from Merz-Kollman fitting 
 -----------------------------------------------
 Center     Atomic                  MZ       
 Number     Number                  Charge
 -----------------------------------------------
    1          6                    0.207448
    2          6                    0.451641
    3          7                   -0.698670
    4         16                   -0.015494
    5         16                    0.882538
    6          8                   -0.483019
    7          8                   -0.494404
    8          7                   -0.710852
    9          1                    0.366723
   10          7                   -0.314860
   11          7                   -0.365916
   12          1                    0.412724
   13          1                    0.387590
   14          1                    0.374551
 -----------------------------------------------
    2   -1244.0910730941      7.98e-04  
         Merz-Kollman ESP Net Atomic Charges

     Atom                 Charge (a.u.)
  ----------------------------------------
      1 C                     0.194387
      2 C                     0.453734
      3 N                    -0.697066
      4 S                    -0.013653
      5 S                     0.876355
      6 O                    -0.482236
      7 O                    -0.492481
      8 N                    -0.707922
      9 H                     0.366891
     10 N                    -0.308597
     11 N                    -0.365414
     12 H                     0.413408
     13 H                     0.387942
     14 H                     0.374653
  ----------------------------------------
  Sum of atomic charges =     0.000000

  Related Dipole Moment =     9.9549 (X -6.5232 Y  3.1230 Z  6.8407)


 Charges (in A.U.) from Merz-Kollman fitting 
 -----------------------------------------------
 Center     Atomic                  MZ       
 Number     Number                  Charge
 -----------------------------------------------
    1          6                    0.194387
    2          6                    0.453734
    3          7                   -0.697066
    4         16                   -0.013653
    5         16                    0.876355
    6          8                   -0.482236
    7          8                   -0.492481
    8          7                   -0.707922
    9          1                    0.366891
   10          7                   -0.308597
   11          7                   -0.365414
   12          1                    0.413408
   13          1                    0.387942
   14          1                    0.374653
 -----------------------------------------------
    3   -1244.0906018479      7.13e-05  
         Merz-Kollman ESP Net Atomic Charges

     Atom                 Charge (a.u.)
  ----------------------------------------
      1 C                     0.201728
      2 C                     0.450761
      3 N                    -0.695391
      4 S                    -0.015400
      5 S                     0.876739
      6 O                    -0.482584
      7 O                    -0.493333
      8 N                    -0.709635
      9 H                     0.367167
     10 N                    -0.310532
     11 N                    -0.366079
     12 H                     0.413458
     13 H                     0.388232
     14 H                     0.374868
  ----------------------------------------
  Sum of atomic charges =     0.000000

  Related Dipole Moment =     9.9569 (X -6.5286 Y  3.1168 Z  6.8413)


 Charges (in A.U.) from Merz-Kollman fitting 
 -----------------------------------------------
 Center     Atomic                  MZ       
 Number     Number                  Charge
 -----------------------------------------------
    1          6                    0.201728
    2          6                    0.450761
    3          7                   -0.695391
    4         16                   -0.015400
    5         16                    0.876739
    6          8                   -0.482584
    7          8                   -0.493333
    8          7                   -0.709635
    9          1                    0.367167
   10          7                   -0.310532
   11          7                   -0.366079
   12          1                    0.413458
   13          1                    0.388232
   14          1                    0.374868
 -----------------------------------------------
    4   -1244.0903850452      4.23e-05  
    5   -1244.0902922374      9.14e-06  Convergence criterion met
 ---------------------------------------
 SCF time:   CPU 50.20s  wall 4.00s 
(0)  E-EN(g) gas-phase elect-nuc energy                -1244.097700945 a.u.
(1)  E-EN(liq) elect-nuc energy of solute              -1244.090292237 a.u.
(2)  G-P(liq) polarization free energy of solvation           -25.3852 kcal/mol
(3)  G-ENP(liq) elect-nuc-pol free energy of system    -1244.130746174 a.u.
(4)  G-CDS(liq) cavity-dispersion-solvent structure 
     free energy                                                1.8696 kcal/mol
(5)  G-P-CDS(liq) = G-P(liq) + G-CDS(liq) = (2) + (4)         -23.5156 kcal/mol
(6)  G-S(liq) free energy of system = (1) + (5)        -1244.127766789 a.u.
(7)  DeltaE-EN(liq) elect-nuc reorganization
     energy of solute molecule (7) = (1) - (0)                  4.6490 kcal/mol
(8)  DeltaG-ENP(liq) elect-nuc-pol free energy
     of solvation (8) = (3) - (0)                             -20.7362 kcal/mol
(9)  DeltaG-S(liq) free energy of  solvation
     (9) = (6) - (0)                                          -18.8666 kcal/mol
 SCF   energy in the final basis set =    -1244.1277667889
 Total energy in the final basis set =    -1244.1277667889
 
 --------------------------------------------------------------
 
                    Orbital Energies (a.u.)
 --------------------------------------------------------------
 
 Alpha MOs
 -- Occupied --
-90.1935 -89.9960 -19.6713 -19.6704 -14.8354 -14.8167 -14.8082 -14.8067
-10.6869 -10.6561  -8.5064  -8.3443  -6.4286  -6.4282  -6.4278  -6.2644
 -6.2626  -6.2595  -1.2752  -1.1827  -1.1604  -1.0706  -1.0468  -0.9508
 -0.9167  -0.8017  -0.7216  -0.7013  -0.6564  -0.6285  -0.6132  -0.6046
 -0.5624  -0.5543  -0.5418  -0.5200  -0.4527  -0.4506  -0.4366  -0.4292
 -0.4132  -0.4065  -0.3865  -0.3748  -0.3614  -0.3058
 -- Virtual --
 -0.0322  -0.0118  -0.0052   0.0198   0.0349   0.0377   0.0456   0.0523
  0.0585   0.0637   0.0725   0.0736   0.0821   0.0901   0.0988   0.1039
  0.1056   0.1200   0.1226   0.1364   0.1419   0.1473   0.1577   0.1657
  0.1782   0.1862   0.1872   0.1951   0.1988   0.2060   0.2158   0.2174
  0.2217   0.2287   0.2359   0.2446   0.2562   0.2659   0.2718   0.2785
  0.2885   0.2962   0.3048   0.3162   0.3190   0.3310   0.3354   0.3381
  0.3485   0.3632   0.3727   0.3949   0.4114   0.4227   0.4386   0.4899
  0.5101   0.5205   0.5351   0.5589   0.5701   0.5989   0.6312   0.6400
  0.6747   0.6796   0.6985   0.7324   0.7563   0.8574   0.8617   0.9017
  0.9099   0.9180   0.9504   0.9714   0.9814   0.9899   0.9955   1.0187
  1.0294   1.0359   1.0451   1.0573   1.0729   1.0745   1.0988   1.1110
  1.1151   1.1180   1.1288   1.1386   1.1547   1.1796   1.1936   1.2291
  1.2593   1.3035   1.3129   1.3284   1.3610   1.3630   1.3703   1.3816
  1.3876   1.4357   1.4446   1.4774   1.5662   1.5796   1.6020   1.6237
  1.6775   1.7116   1.7542   1.7593   1.7792   1.8259   1.8341   1.8422
  1.8638   1.8969   1.9218   1.9768   1.9946   2.0181   2.1098   2.1263
  2.1359   2.1435   2.1718   2.2532   2.2674   2.3178   2.3416   2.3649
  2.3936   2.4373   2.4537   2.4897   2.5059   2.5485   2.5908   2.7368
  2.8180   2.8646   2.8838   2.9223   3.0653   3.1049   3.8601   3.9552
  4.0024   4.0515   4.0948   4.1312   4.1848   4.3074   4.3651   4.4063
 --------------------------------------------------------------
 
          Ground-State Mulliken Net Atomic Charges

     Atom                 Charge (a.u.)
  ----------------------------------------
      1 C                    -0.887772
      2 C                     0.056509
      3 N                    -0.480556
      4 S                     1.087755
      5 S                     1.149341
      6 O                    -0.703479
      7 O                    -0.732484
      8 N                    -0.787667
      9 H                     0.509431
     10 N                    -0.392708
     11 N                    -0.280718
     12 H                     0.482674
     13 H                     0.507958
     14 H                     0.471715
  ----------------------------------------
  Sum of atomic charges =     0.000000

         Merz-Kollman ESP Net Atomic Charges

     Atom                 Charge (a.u.)
  ----------------------------------------
      1 C                     0.200709
      2 C                     0.451472
      3 N                    -0.694755
      4 S                    -0.015903
      5 S                     0.877700
      6 O                    -0.482812
      7 O                    -0.493628
      8 N                    -0.709380
      9 H                     0.366964
     10 N                    -0.310061
     11 N                    -0.366482
     12 H                     0.413341
     13 H                     0.388060
     14 H                     0.374774
  ----------------------------------------
  Sum of atomic charges =     0.000000

  Related Dipole Moment =     9.9622 (X -6.5362 Y  3.1201 Z  6.8402)

 -----------------------------------------------------------------
                    Cartesian Multipole Moments
 -----------------------------------------------------------------
    Charge (ESU x 10^10)
                 0.0000
    Dipole Moment (Debye)
         X      -6.5640      Y       2.9769      Z       6.7511
       Tot       9.8755
    Quadrupole Moments (Debye-Ang)
        XX     -69.0931     XY       8.1947     YY     -75.3832
        XZ       6.8548     YZ       8.1306     ZZ     -74.6099
    Octopole Moments (Debye-Ang^2)
       XXX    -319.4269    XXY      39.5600    XYY     -81.8132
       YYY     -67.0437    XXZ      52.3390    XYZ      11.2407
       YYZ      10.4104    XZZ     -88.8880    YZZ     -26.9776
       ZZZ      27.2990
    Hexadecapole Moments (Debye-Ang^3)
      XXXX   -2303.5285   XXXY     149.8146   XXYY    -377.0482
      XYYY     110.2410   YYYY    -456.6265   XXXZ     125.8132
      XXYZ      55.9501   XYYZ      20.2239   YYYZ      71.7003
      XXZZ    -433.3716   XYZZ      36.8650   YYZZ    -135.7450
      XZZZ      94.1319   YZZZ      63.2661   ZZZZ    -307.9118
 -----------------------------------------------------------------
 Total job time:  9.46s(wall), 113.59s(cpu) 
 Thu Jun 23 16:17:28 2022

        *************************************************************
        *                                                           *
        *  Thank you very much for using Q-Chem.  Have a nice day.  *
        *                                                           *
        *************************************************************


