                  Welcome to Q-Chem
     A Quantum Leap Into The Future Of Chemistry


 Q-Chem 5.4 (devel), Q-Chem, Inc., Pleasanton, CA (2021)

 E. Epifanovsky,  A. T. B. Gilbert,  Xintian Feng,  Joonho Lee,  Yuezhi Mao,  
 N. Mardirossian,  P. Pokhilko,  A. White,  M. Wormit,  M. P. Coons,  
 A. L. Dempwolff,  Zhengting Gan,  D. Hait,  P. R. Horn,  L. D. Jacobson,  
 I. Kaliman,  J. Kussmann,  A. W. Lange,  Ka Un Lao,  D. S. Levine,  Jie Liu,  
 S. C. McKenzie,  A. F. Morrison,  K. Nanda,  F. Plasser,  D. R. Rehn,  
 M. L. Vidal,  Zhi-Qiang You,  Ying Zhu,  B. Alam,  B. Albrecht,  
 A. Aldossary,  E. Alguire,  J. H. Andersen,  D. Barton,  K. Begam,  A. Behn,  
 Y. A. Bernard,  E. J. Berquist,  H. Burton,  A. Carreras,  K. Carter-Fenk,  
 R. Chakraborty,  A. D. Chien,  K. D. Closser,  V. Cofer-Shabica,  
 S. Dasgupta,  Jia Deng,  M. de Wergifosse,  M. Diedenhofen,  Hainam Do,  
 S. Ehlert,  Po-Tung Fang,  S. Fatehi,  Qingguo Feng,  T. Friedhoff,  
 J. Gayvert,  Qinghui Ge,  G. Gidofalvi,  M. Goldey,  J. Gomes,  
 C. Gonzalez-Espinoza,  S. Gulania,  A. Gunina,  M. W. D. Hanson-Heine,  
 P. H. P. Harbach,  A. W. Hauser,  M. F. Herbst,  M. Hernandez Vera,  
 M. Hodecker,  Z. C. Holden,  S. Houck,  Xunkun Huang,  Kerwin Hui,  
 B. C. Huynh,  M. Ivanov,  Hyunjun Ji,  Hanjie Jiang,  B. Kaduk,  S. Kaehler,  
 K. Khistyaev,  Jaehoon Kim,  P. Klunzinger,  Z. Koczor-Benda,  
 Joong Hoon Koh,  D. Kosenkov,  L. Koulias,  T. Kowalczyk,  C. M. Krauter,  
 K. Kue,  A. Kunitsa,  T. Kus,  A. Landau,  K. V. Lawler,  D. Lefrancois,  
 S. Lehtola,  Rain Li,  Yi-Pei Li,  Jiashu Liang,  M. Liebenthal,  
 Hung-Hsuan Lin,  You-Sheng Lin,  Fenglai Liu,  Kuan-Yu Liu,  
 M. Loipersberger,  A. Luenser,  A. Manjanath,  P. Manohar,  E. Mansoor,  
 S. F. Manzer,  Shan-Ping Mao,  A. V. Marenich,  T. Markovich,  S. Mason,  
 S. A. Maurer,  P. F. McLaughlin,  M. F. S. J. Menger,  J.-M. Mewes,  
 S. A. Mewes,  P. Morgante,  J. W. Mullinax,  K. J. Oosterbaan,  G. Paran,  
 Alexander C. Paul,  Suranjan K. Paul,  F. Pavosevic,  Zheng Pei,  S. Prager,  
 E. I. Proynov,  E. Ramos,  B. Rana,  A. E. Rask,  A. Rettig,  R. M. Richard,  
 F. Rob,  E. Rossomme,  T. Scheele,  M. Scheurer,  M. Schneider,  
 N. Sergueev,  S. M. Sharada,  W. Skomorowski,  D. W. Small,  C. J. Stein,  
 Yu-Chuan Su,  E. J. Sundstrom,  Zhen Tao,  J. Thirman,  T. Tsuchimochi,  
 N. M. Tubman,  S. P. Veccham,  O. Vydrov,  J. Wenzel,  J. Witte,  A. Yamada,  
 Kun Yao,  S. Yeganeh,  S. R. Yost,  A. Zech,  Igor Ying Zhang,  Xing Zhang,  
 Yu Zhang,  D. Zuev,  A. Aspuru-Guzik,  A. T. Bell,  N. A. Besley,  
 K. B. Bravaya,  B. R. Brooks,  D. Casanova,  Jeng-Da Chai,  S. Coriani,  
 C. J. Cramer,  A. E. DePrince, III,  R. A. DiStasio Jr.,  A. Dreuw,  
 B. D. Dunietz,  T. R. Furlani,  W. A. Goddard III,  S. Grimme,  
 S. Hammes-Schiffer,  T. Head-Gordon,  W. J. Hehre,  Chao-Ping Hsu,  
 T.-C. Jagau,  Yousung Jung,  A. Klamt,  Jing Kong,  D. S. Lambrecht,  
 WanZhen Liang,  N. J. Mayhall,  C. W. McCurdy,  J. B. Neaton,  
 C. Ochsenfeld,  J. A. Parkhill,  R. Peverati,  V. A. Rassolov,  Yihan Shao,  
 L. V. Slipchenko,  T. Stauch,  R. P. Steele,  J. E. Subotnik,  
 A. J. W. Thom,  A. Tkatchenko,  D. G. Truhlar,  T. Van Voorhis,  
 T. A. Wesolowski,  K. B. Whaley,  H. L. Woodcock III,  P. M. Zimmerman,  
 S. Faraji,  P. M. W. Gill,  M. Head-Gordon,  J. M. Herbert,  A. I. Krylov

 Additional authors for Version 5.4.1: 
 S. Kotaru,  Shaozhi Li,  Xiangyuan Li,  F. Matz,  A. Molle,  Haisheng Ren,  
 Yingli Su,  Hung-Yi Tsai,  C. Utku,  Fang Wang

 Contributors to earlier versions of Q-Chem not listed above: 
 R. D. Adamson,  B. Austin,  R. Baer,  J. Baker,  G. J. O. Beran,  
 K. Brandhorst,  S. T. Brown,  E. F. C. Byrd,  A. K. Chakraborty,  
 G. K. L. Chan,  Chun-Min Chang,  Yunqing Chen,  C.-L. Cheng,  
 Siu Hung Chien,  D. M. Chipman,  D. L. Crittenden,  H. Dachsel,  
 R. J. Doerksen,  A. D. Dutoi,  R. G. Edgar,  J. Fosso-Tande,  
 L. Fusti-Molnar,  D. Ghosh,  A. Ghysels,  A. Golubeva-Zadorozhnaya,  
 J. Gonthier,  M. S. Gordon,  S. R. Gwaltney,  G. Hawkins,  J. E. Herr,  
 A. Heyden,  S. Hirata,  E. G. Hohenstein,  G. Kedziora,  F. J. Keil,  
 C. Kelley,  Jihan Kim,  R. A. King,  R. Z. Khaliullin,  P. P. Korambath,  
 W. Kurlancheek,  A. Laurent,  A. M. Lee,  M. S. Lee,  S. V. Levchenko,  
 Ching Yeh Lin,  D. Liotard,  E. Livshits,  R. C. Lochan,  I. Lotan,  
 L. A. Martinez-Martinez,  P. E. Maslen,  N. Nair,  D. P. O'Neill,  
 D. Neuhauser,  E. Neuscamman,  C. M. Oana,  R. Olivares-Amaya,  R. Olson,  
 T. M. Perrine,  B. Peters,  P. A. Pieniazek,  A. Prociuk,  Y. M. Rhee,  
 J. Ritchie,  M. A. Rohrdanz,  E. Rosta,  N. J. Russ,  H. F. Schaefer III,  
 M. W. Schmidt,  N. E. Schultz,  S. Sharma,  N. Shenvi,  C. D. Sherrill,  
 A. C. Simmonett,  A. Sodt,  T. Stein,  D. Stuck,  K. S. Thanthiriwatte,  
 V. Vanovschi,  L. Vogt,  Tao Wang,  A. Warshel,  M. A. Watson,  
 C. F. Williams,  Q. Wu,  X. Xu,  Jun Yang,  W. Zhang,  Yan Zhao

 Please cite Q-Chem as follows:
 Y. Shao et al., Mol. Phys. 113, 184-215 (2015)
 DOI: 10.1080/00268976.2014.952696

 Q-Chem 5.4.1 for Intel X86 EM64T Linux

 Parts of Q-Chem use Armadillo 9.800.1 (Horizon Scraper).
 http://arma.sourceforge.net/

 Q-Chem begins on Sat May 28 16:44:53 2022  

 Host: gadi-cpu-clx-1119.gadi.nci.org.au
0

     Scratch files written to /jobfs/41564534.gadi-pbs/qchem1454814//
 Processing $rem in /apps/qchem/5.4.1/config/preferences:
 Processing $rem in /home/561/yj5695/.qchemrc:
 Symmetry turned off for PCM/SM12/SMD calculation
 Method-specific promolecule density matrix will be built for SM12 calculation

 Checking the input file for inconsistencies... 	...done.

--------------------------------------------------------------
User input:
--------------------------------------------------------------
$molecule
0  1
C -1.7924543926  0.4613164673 -1.3749557113
S -2.3199137989  0.4121802311  0.3072939078
O -3.5312098691 -0.4024551003  0.3392308323
O -1.1539949112  0.0504250062  1.1042651673
N -2.7635768213  1.9201943134  0.7806841592
H -3.5765335995  2.2677025131  0.2673205888
H -1.9880147706  2.5845698109  0.7428040184
S -2.9238947545  0.278692735 -2.6710098267
C -1.6845338591  0.5101750164 -3.8258738947
C -0.4755428856  0.7172524126 -3.2204851213
C -0.5159516399  0.690730778 -1.7980988184
S  1.0179426984  0.9295373017 -4.1409267569
C  1.8265608317 -0.6456644494 -4.0522654617
O  1.8408765112  1.9163558795 -3.4295537773
O  0.6354530481  1.1872121731 -5.5357134803
C  2.800198108 -0.8529822508 -3.0801047436
C  3.4005555115 -2.1083059067 -3.003989796
C  3.0300302469 -3.134869593 -3.8765789516
C  2.0386553609 -2.8949424495 -4.837401616
C  1.4281227971 -1.650551727 -4.9343324999
H -1.9033016999  0.4701194264 -4.8870425436
H  0.3385073522  0.8293759143 -1.1431194148
H  3.0885343541 -0.0546509027 -2.4033273263
H  4.1693283705 -2.2901480519 -2.2573600846
H  0.656530314 -1.4649349111 -5.6762399902
C  3.687246286 -4.4910649983 -3.7899429296
N  4.6429368987 -4.7301089162 -4.876742888
H  1.7397388291 -3.692524786 -5.512402496
H  2.9177799747 -5.268049274 -3.8503742201
H  4.1863684201 -4.5907045916 -2.8102299747
C  5.7865132708 -3.8188724719 -4.76650654
C  5.1405556752 -6.1056292931 -4.7728114032
C  6.1810087413 -6.3799567961 -5.8417596238
C  6.8202219018 -4.1310908626 -5.8326554171
O  7.2766052629 -5.4764095646 -5.7301296441
H  6.253391385 -3.906285524 -3.7676212131
H  5.4493575466 -2.7854441643 -4.8931264535
H  4.303586995 -6.8011522838 -4.8916595016
H  5.5912993078 -6.2793754897 -3.7783175216
H  5.7353852283 -6.286121366 -6.8428188206
H  6.5890302056 -7.3865708417 -5.7271948824
H  7.6965158564 -3.4906674125 -5.710985622
H  6.3952867122 -3.968895 -6.833980707
$end

$rem
jobtype sp
exchange M062X
basis 6-31G*
SMX_GAS_PHASE = TRUE
solvent_method sm12
$end

$smx
solvent water
charges mk
$end
--------------------------------------------------------------
 ----------------------------------------------------------------
             Standard Nuclear Orientation (Angstroms)
    I     Atom           X                Y                Z
 ----------------------------------------------------------------
    1      C      -1.7924543926     0.4613164673    -1.3749557113
    2      S      -2.3199137989     0.4121802311     0.3072939078
    3      O      -3.5312098691    -0.4024551003     0.3392308323
    4      O      -1.1539949112     0.0504250062     1.1042651673
    5      N      -2.7635768213     1.9201943134     0.7806841592
    6      H      -3.5765335995     2.2677025131     0.2673205888
    7      H      -1.9880147706     2.5845698109     0.7428040184
    8      S      -2.9238947545     0.2786927350    -2.6710098267
    9      C      -1.6845338591     0.5101750164    -3.8258738947
   10      C      -0.4755428856     0.7172524126    -3.2204851213
   11      C      -0.5159516399     0.6907307780    -1.7980988184
   12      S       1.0179426984     0.9295373017    -4.1409267569
   13      C       1.8265608317    -0.6456644494    -4.0522654617
   14      O       1.8408765112     1.9163558795    -3.4295537773
   15      O       0.6354530481     1.1872121731    -5.5357134803
   16      C       2.8001981080    -0.8529822508    -3.0801047436
   17      C       3.4005555115    -2.1083059067    -3.0039897960
   18      C       3.0300302469    -3.1348695930    -3.8765789516
   19      C       2.0386553609    -2.8949424495    -4.8374016160
   20      C       1.4281227971    -1.6505517270    -4.9343324999
   21      H      -1.9033016999     0.4701194264    -4.8870425436
   22      H       0.3385073522     0.8293759143    -1.1431194148
   23      H       3.0885343541    -0.0546509027    -2.4033273263
   24      H       4.1693283705    -2.2901480519    -2.2573600846
   25      H       0.6565303140    -1.4649349111    -5.6762399902
   26      C       3.6872462860    -4.4910649983    -3.7899429296
   27      N       4.6429368987    -4.7301089162    -4.8767428880
   28      H       1.7397388291    -3.6925247860    -5.5124024960
   29      H       2.9177799747    -5.2680492740    -3.8503742201
   30      H       4.1863684201    -4.5907045916    -2.8102299747
   31      C       5.7865132708    -3.8188724719    -4.7665065400
   32      C       5.1405556752    -6.1056292931    -4.7728114032
   33      C       6.1810087413    -6.3799567961    -5.8417596238
   34      C       6.8202219018    -4.1310908626    -5.8326554171
   35      O       7.2766052629    -5.4764095646    -5.7301296441
   36      H       6.2533913850    -3.9062855240    -3.7676212131
   37      H       5.4493575466    -2.7854441643    -4.8931264535
   38      H       4.3035869950    -6.8011522838    -4.8916595016
   39      H       5.5912993078    -6.2793754897    -3.7783175216
   40      H       5.7353852283    -6.2861213660    -6.8428188206
   41      H       6.5890302056    -7.3865708417    -5.7271948824
   42      H       7.6965158564    -3.4906674125    -5.7109856220
   43      H       6.3952867122    -3.9688950000    -6.8339807070
 ----------------------------------------------------------------
 Nuclear Repulsion Energy =        2691.05500740 hartrees
 There are      105 alpha and      105 beta electrons
 Requested basis set is 6-31G(d)
 There are 139 shells and 423 basis functions

 Total QAlloc Memory Limit   2000 MB
 Mega-Array Size       188 MB
 MEM_STATIC part       192 MB
 A cutoff of  1.0D-08 yielded   4110 shell pairs
 There are     39991 function pairs
 Smallest overlap matrix eigenvalue = 4.45E-04

 Scale SEOQF with 1.000000e-02/1.000000e-02/1.000000e-02

 Standard Electronic Orientation quadrupole field applied
 Nucleus-field energy     =    -0.0000000111 hartrees
 ================ Generating on-the-fly Promolecule Density  ================
Attempting to make child job directory: /jobfs/41564534.gadi-pbs/qchem1454814//Frg1/
Attempting to make child job directory: /jobfs/41564534.gadi-pbs/qchem1454814//Frg2/
Attempting to make child job directory: /jobfs/41564534.gadi-pbs/qchem1454814//Frg3/
Attempting to make child job directory: /jobfs/41564534.gadi-pbs/qchem1454814//Frg4/
Attempting to make child job directory: /jobfs/41564534.gadi-pbs/qchem1454814//Frg5/
Creating input file /jobfs/41564534.gadi-pbs/qchem1454814/Frg1.input
using default PutDataFrgm: nothing
calling putenv with: QCSCRATCH=/jobfs/41564534.gadi-pbs/qchem1454814/ 
Spawning Job For Fragment 0
Done Job For Fragment 0
calling putenv with: QCSCRATCH=/jobfs/41564534.gadi-pbs 
calling putenv with: QCTHREADS=16 
Creating input file /jobfs/41564534.gadi-pbs/qchem1454814/Frg2.input
using default PutDataFrgm: nothing
calling putenv with: QCSCRATCH=/jobfs/41564534.gadi-pbs/qchem1454814/ 
Spawning Job For Fragment 1
Done Job For Fragment 1
calling putenv with: QCSCRATCH=/jobfs/41564534.gadi-pbs 
calling putenv with: QCTHREADS=16 
Creating input file /jobfs/41564534.gadi-pbs/qchem1454814/Frg3.input
using default PutDataFrgm: nothing
calling putenv with: QCSCRATCH=/jobfs/41564534.gadi-pbs/qchem1454814/ 
Spawning Job For Fragment 2
Done Job For Fragment 2
calling putenv with: QCSCRATCH=/jobfs/41564534.gadi-pbs 
calling putenv with: QCTHREADS=16 
Creating input file /jobfs/41564534.gadi-pbs/qchem1454814/Frg4.input
using default PutDataFrgm: nothing
calling putenv with: QCSCRATCH=/jobfs/41564534.gadi-pbs/qchem1454814/ 
Spawning Job For Fragment 3
Done Job For Fragment 3
calling putenv with: QCSCRATCH=/jobfs/41564534.gadi-pbs 
calling putenv with: QCTHREADS=16 
Creating input file /jobfs/41564534.gadi-pbs/qchem1454814/Frg5.input
using default PutDataFrgm: nothing
calling putenv with: QCSCRATCH=/jobfs/41564534.gadi-pbs/qchem1454814/ 
Spawning Job For Fragment 4
Done Job For Fragment 4
calling putenv with: QCSCRATCH=/jobfs/41564534.gadi-pbs 
calling putenv with: QCTHREADS=16 
 Time for running child jobs:  CPU 1.51 s  wall 2.21 s
 ============= Method Specific Promolecule Density Constructed =============
 Guess from superposition of atomic densities
 Warning:  Energy on first SCF cycle will be non-variational
 SAD guess density has 210.000000 electrons

 -----------------------------------------------------------------------
  General SCF calculation program by
  Eric Jon Sundstrom, Paul Horn, Yuezhi Mao, Dmitri Zuev, Alec White,
  David Stuck, Shaama M.S., Shane Yost, Joonho Lee, David Small,
  Daniel Levine, Susi Lehtola, Hugh Burton, Evgeny Epifanovsky,
  Bang C. Huynh
 -----------------------------------------------------------------------
 Exchange:     0.5400 Hartree-Fock + 1.0000 M06-2X
 Correlation:  1.0000 M06-2X
 Using SG-3 standard quadrature grid
 using 16 threads for integral computing
 -------------------------------------------------------
 OpenMP Integral computing Module                
 Release: version 1.0, May 2013, Q-Chem Inc. Pittsburgh 
 -------------------------------------------------------
 A restricted SCF calculation will be
 performed using DIIS
 SCF converges when DIIS error is below 1.0e-05
 ---------------------------------------
  Cycle       Energy         DIIS error
 ---------------------------------------
    1   -2270.1237560544      4.15e-02  
    2   -2261.4067843445      5.00e-03  
    3   -2261.0541727646      7.02e-03  
    4   -2261.8730575530      7.74e-04  
    5   -2261.8827935292      3.81e-04  
    6   -2261.8858500935      9.16e-05  
    7   -2261.8860244212      3.43e-05  
    8   -2261.8860492757      9.97e-06  Convergence criterion met
 ---------------------------------------
 SCF time:   CPU 152.98s  wall 10.00s 
 SCF   energy in the final basis set =    -2261.8860492757
 Total energy in the final basis set =    -2261.8860492757
 Exchange:     0.5400 Hartree-Fock + 1.0000 M06-2X
 Correlation:  1.0000 M06-2X
 Using SG-3 standard quadrature grid
 
 SM12 calculation using Merz-Singh-Kollman charges
 Citation of the SM12 model:
 Marenich, A.V.; Cramer, C.J.; Truhlar, D.G.
 J. Chem. Theory Comput. 2013, 9, 609-612.
 iSolventCode=           1
 Solvent: water                                                           
 
  Building new vdw surfaces
         Merz-Kollman ESP Net Atomic Charges

     Atom                 Charge (a.u.)
  ----------------------------------------
      1 C                    -0.230207
      2 S                     0.976266
      3 O                    -0.449887
      4 O                    -0.459890
      5 N                    -0.835911
      6 H                     0.406167
      7 H                     0.409682
      8 S                     0.120476
      9 C                    -0.143676
     10 C                    -0.134901
     11 C                    -0.027849
     12 S                     0.838545
     13 C                    -0.002866
     14 O                    -0.487640
     15 O                    -0.494642
     16 C                    -0.138532
     17 C                    -0.272270
     18 C                     0.405959
     19 C                    -0.291687
     20 C                    -0.093944
     21 H                     0.224290
     22 H                     0.161108
     23 H                     0.173420
     24 H                     0.164070
     25 H                     0.142697
     26 C                    -0.601351
     27 N                    -0.194504
     28 H                     0.188751
     29 H                     0.225293
     30 H                     0.178935
     31 C                    -0.109369
     32 C                    -0.090571
     33 C                    -0.051257
     34 C                    -0.073630
     35 O                    -0.304245
     36 H                     0.110755
     37 H                     0.125027
     38 H                     0.104794
     39 H                     0.105669
     40 H                     0.096092
     41 H                     0.109156
     42 H                     0.118046
     43 H                     0.103630
  ----------------------------------------
  Sum of atomic charges =     0.000000

  Related Dipole Moment =     2.1018 (X -1.0389 Y -1.0124 Z -1.5210)


 Charges (in A.U.) from Merz-Kollman fitting 
 -----------------------------------------------
 Center     Atomic                  MZ       
 Number     Number                  Charge
 -----------------------------------------------
    1          6                   -0.230207
    2         16                    0.976266
    3          8                   -0.449887
    4          8                   -0.459890
    5          7                   -0.835911
    6          1                    0.406167
    7          1                    0.409682
    8         16                    0.120476
    9          6                   -0.143676
   10          6                   -0.134901
   11          6                   -0.027849
   12         16                    0.838545
   13          6                   -0.002866
   14          8                   -0.487640
   15          8                   -0.494642
   16          6                   -0.138532
   17          6                   -0.272270
   18          6                    0.405959
   19          6                   -0.291687
   20          6                   -0.093944
   21          1                    0.224290
   22          1                    0.161108
   23          1                    0.173420
   24          1                    0.164070
   25          1                    0.142697
   26          6                   -0.601351
   27          7                   -0.194504
   28          1                    0.188751
   29          1                    0.225293
   30          1                    0.178935
   31          6                   -0.109369
   32          6                   -0.090571
   33          6                   -0.051257
   34          6                   -0.073630
   35          8                   -0.304245
   36          1                    0.110755
   37          1                    0.125027
   38          1                    0.104794
   39          1                    0.105669
   40          1                    0.096092
   41          1                    0.109156
   42          1                    0.118046
   43          1                    0.103630
 -----------------------------------------------
 A restricted SCF calculation will be
 performed using Roothaan-Hall, DIIS
 SCF converges when DIIS error is below 1.0e-05
 ---------------------------------------
  Cycle       Energy         DIIS error
 ---------------------------------------
         Merz-Kollman ESP Net Atomic Charges

     Atom                 Charge (a.u.)
  ----------------------------------------
      1 C                    -0.227759
      2 S                     1.026064
      3 O                    -0.504354
      4 O                    -0.513687
      5 N                    -0.838694
      6 H                     0.427860
      7 H                     0.432043
      8 S                     0.130357
      9 C                    -0.127287
     10 C                    -0.135963
     11 C                    -0.042672
     12 S                     0.883022
     13 C                    -0.011045
     14 O                    -0.533140
     15 O                    -0.538733
     16 C                    -0.149287
     17 C                    -0.279201
     18 C                     0.438182
     19 C                    -0.305507
     20 C                    -0.103324
     21 H                     0.241723
     22 H                     0.173953
     23 H                     0.182637
     24 H                     0.177152
     25 H                     0.153603
     26 C                    -0.630794
     27 N                    -0.200806
     28 H                     0.202208
     29 H                     0.237626
     30 H                     0.188828
     31 C                    -0.105645
     32 C                    -0.089814
     33 C                    -0.065642
     34 C                    -0.084903
     35 O                    -0.331042
     36 H                     0.114770
     37 H                     0.127494
     38 H                     0.116349
     39 H                     0.108904
     40 H                     0.102627
     41 H                     0.118783
     42 H                     0.126366
     43 H                     0.108749
  ----------------------------------------
  Sum of atomic charges =     0.000000

  Related Dipole Moment =     2.5435 (X -1.5875 Y -1.0816 Z -1.6670)


 Charges (in A.U.) from Merz-Kollman fitting 
 -----------------------------------------------
 Center     Atomic                  MZ       
 Number     Number                  Charge
 -----------------------------------------------
    1          6                   -0.227759
    2         16                    1.026064
    3          8                   -0.504354
    4          8                   -0.513687
    5          7                   -0.838694
    6          1                    0.427860
    7          1                    0.432043
    8         16                    0.130357
    9          6                   -0.127287
   10          6                   -0.135963
   11          6                   -0.042672
   12         16                    0.883022
   13          6                   -0.011045
   14          8                   -0.533140
   15          8                   -0.538733
   16          6                   -0.149287
   17          6                   -0.279201
   18          6                    0.438182
   19          6                   -0.305507
   20          6                   -0.103324
   21          1                    0.241723
   22          1                    0.173953
   23          1                    0.182637
   24          1                    0.177152
   25          1                    0.153603
   26          6                   -0.630794
   27          7                   -0.200806
   28          1                    0.202208
   29          1                    0.237626
   30          1                    0.188828
   31          6                   -0.105645
   32          6                   -0.089814
   33          6                   -0.065642
   34          6                   -0.084903
   35          8                   -0.331042
   36          1                    0.114770
   37          1                    0.127494
   38          1                    0.116349
   39          1                    0.108904
   40          1                    0.102627
   41          1                    0.118783
   42          1                    0.126366
   43          1                    0.108749
 -----------------------------------------------
    1   -2261.8860503161      3.04e-04  Roothaan Step
 ---------------------------------------
  Cycle       Energy         DIIS error
 ---------------------------------------
         Merz-Kollman ESP Net Atomic Charges

     Atom                 Charge (a.u.)
  ----------------------------------------
      1 C                    -0.223963
      2 S                     0.984593
      3 O                    -0.477425
      4 O                    -0.488316
      5 N                    -0.849667
      6 H                     0.430174
      7 H                     0.435760
      8 S                     0.137154
      9 C                    -0.164865
     10 C                    -0.132962
     11 C                    -0.052228
     12 S                     0.851870
     13 C                    -0.003652
     14 O                    -0.514055
     15 O                    -0.521370
     16 C                    -0.142477
     17 C                    -0.292199
     18 C                     0.437803
     19 C                    -0.314410
     20 C                    -0.097268
     21 H                     0.254074
     22 H                     0.178742
     23 H                     0.181588
     24 H                     0.182276
     25 H                     0.152175
     26 C                    -0.645687
     27 N                    -0.183166
     28 H                     0.205985
     29 H                     0.241897
     30 H                     0.191983
     31 C                    -0.114608
     32 C                    -0.105469
     33 C                    -0.064815
     34 C                    -0.083788
     35 O                    -0.315247
     36 H                     0.116194
     37 H                     0.128084
     38 H                     0.118823
     39 H                     0.112113
     40 H                     0.099714
     41 H                     0.117080
     42 H                     0.123977
     43 H                     0.105579
  ----------------------------------------
  Sum of atomic charges =     0.000000

  Related Dipole Moment =     2.3849 (X -1.3822 Y -1.1636 Z -1.5568)


 Charges (in A.U.) from Merz-Kollman fitting 
 -----------------------------------------------
 Center     Atomic                  MZ       
 Number     Number                  Charge
 -----------------------------------------------
    1          6                   -0.223963
    2         16                    0.984593
    3          8                   -0.477425
    4          8                   -0.488316
    5          7                   -0.849667
    6          1                    0.430174
    7          1                    0.435760
    8         16                    0.137154
    9          6                   -0.164865
   10          6                   -0.132962
   11          6                   -0.052228
   12         16                    0.851870
   13          6                   -0.003652
   14          8                   -0.514055
   15          8                   -0.521370
   16          6                   -0.142477
   17          6                   -0.292199
   18          6                    0.437803
   19          6                   -0.314410
   20          6                   -0.097268
   21          1                    0.254074
   22          1                    0.178742
   23          1                    0.181588
   24          1                    0.182276
   25          1                    0.152175
   26          6                   -0.645687
   27          7                   -0.183166
   28          1                    0.205985
   29          1                    0.241897
   30          1                    0.191983
   31          6                   -0.114608
   32          6                   -0.105469
   33          6                   -0.064815
   34          6                   -0.083788
   35          8                   -0.315247
   36          1                    0.116194
   37          1                    0.128084
   38          1                    0.118823
   39          1                    0.112113
   40          1                    0.099714
   41          1                    0.117080
   42          1                    0.123977
   43          1                    0.105579
 -----------------------------------------------
    1   -2261.8796300022      2.41e-04  
         Merz-Kollman ESP Net Atomic Charges

     Atom                 Charge (a.u.)
  ----------------------------------------
      1 C                    -0.222320
      2 S                     1.022651
      3 O                    -0.499387
      4 O                    -0.509579
      5 N                    -0.845235
      6 H                     0.429836
      7 H                     0.435025
      8 S                     0.129599
      9 C                    -0.147865
     10 C                    -0.130787
     11 C                    -0.052787
     12 S                     0.880221
     13 C                    -0.003867
     14 O                    -0.531131
     15 O                    -0.537385
     16 C                    -0.146833
     17 C                    -0.289179
     18 C                     0.442489
     19 C                    -0.314052
     20 C                    -0.100290
     21 H                     0.249930
     22 H                     0.177783
     23 H                     0.182344
     24 H                     0.181519
     25 H                     0.152975
     26 C                    -0.643397
     27 N                    -0.190905
     28 H                     0.205783
     29 H                     0.241398
     30 H                     0.191670
     31 C                    -0.110525
     32 C                    -0.100615
     33 C                    -0.062715
     34 C                    -0.081540
     35 O                    -0.325425
     36 H                     0.115581
     37 H                     0.127813
     38 H                     0.119127
     39 H                     0.111189
     40 H                     0.100331
     41 H                     0.117716
     42 H                     0.124662
     43 H                     0.106176
  ----------------------------------------
  Sum of atomic charges =     0.000000

  Related Dipole Moment =     2.4605 (X -1.4942 Y -1.1182 Z -1.6035)


 Charges (in A.U.) from Merz-Kollman fitting 
 -----------------------------------------------
 Center     Atomic                  MZ       
 Number     Number                  Charge
 -----------------------------------------------
    1          6                   -0.222320
    2         16                    1.022651
    3          8                   -0.499387
    4          8                   -0.509579
    5          7                   -0.845235
    6          1                    0.429836
    7          1                    0.435025
    8         16                    0.129599
    9          6                   -0.147865
   10          6                   -0.130787
   11          6                   -0.052787
   12         16                    0.880221
   13          6                   -0.003867
   14          8                   -0.531131
   15          8                   -0.537385
   16          6                   -0.146833
   17          6                   -0.289179
   18          6                    0.442489
   19          6                   -0.314052
   20          6                   -0.100290
   21          1                    0.249930
   22          1                    0.177783
   23          1                    0.182344
   24          1                    0.181519
   25          1                    0.152975
   26          6                   -0.643397
   27          7                   -0.190905
   28          1                    0.205783
   29          1                    0.241398
   30          1                    0.191670
   31          6                   -0.110525
   32          6                   -0.100615
   33          6                   -0.062715
   34          6                   -0.081540
   35          8                   -0.325425
   36          1                    0.115581
   37          1                    0.127813
   38          1                    0.119127
   39          1                    0.111189
   40          1                    0.100331
   41          1                    0.117716
   42          1                    0.124662
   43          1                    0.106176
 -----------------------------------------------
    2   -2261.8814789466      2.84e-04  
         Merz-Kollman ESP Net Atomic Charges

     Atom                 Charge (a.u.)
  ----------------------------------------
      1 C                    -0.225092
      2 S                     1.015468
      3 O                    -0.496988
      4 O                    -0.507327
      5 N                    -0.845352
      6 H                     0.430736
      7 H                     0.435925
      8 S                     0.132280
      9 C                    -0.144797
     10 C                    -0.135029
     11 C                    -0.050527
     12 S                     0.876277
     13 C                    -0.008030
     14 O                    -0.529314
     15 O                    -0.535856
     16 C                    -0.145823
     17 C                    -0.288986
     18 C                     0.443625
     19 C                    -0.313654
     20 C                    -0.099838
     21 H                     0.250241
     22 H                     0.177759
     23 H                     0.182477
     24 H                     0.181919
     25 H                     0.153237
     26 C                    -0.643201
     27 N                    -0.190927
     28 H                     0.206095
     29 H                     0.241519
     30 H                     0.191759
     31 C                    -0.111053
     32 C                    -0.100977
     33 C                    -0.063706
     34 C                    -0.082566
     35 O                    -0.325646
     36 H                     0.115836
     37 H                     0.128185
     38 H                     0.119650
     39 H                     0.111366
     40 H                     0.100587
     41 H                     0.118181
     42 H                     0.125122
     43 H                     0.106444
  ----------------------------------------
  Sum of atomic charges =     0.000000

  Related Dipole Moment =     2.4921 (X -1.5166 Y -1.1427 Z -1.6140)


 Charges (in A.U.) from Merz-Kollman fitting 
 -----------------------------------------------
 Center     Atomic                  MZ       
 Number     Number                  Charge
 -----------------------------------------------
    1          6                   -0.225092
    2         16                    1.015468
    3          8                   -0.496988
    4          8                   -0.507327
    5          7                   -0.845352
    6          1                    0.430736
    7          1                    0.435925
    8         16                    0.132280
    9          6                   -0.144797
   10          6                   -0.135029
   11          6                   -0.050527
   12         16                    0.876277
   13          6                   -0.008030
   14          8                   -0.529314
   15          8                   -0.535856
   16          6                   -0.145823
   17          6                   -0.288986
   18          6                    0.443625
   19          6                   -0.313654
   20          6                   -0.099838
   21          1                    0.250241
   22          1                    0.177759
   23          1                    0.182477
   24          1                    0.181919
   25          1                    0.153237
   26          6                   -0.643201
   27          7                   -0.190927
   28          1                    0.206095
   29          1                    0.241519
   30          1                    0.191759
   31          6                   -0.111053
   32          6                   -0.100977
   33          6                   -0.063706
   34          6                   -0.082566
   35          8                   -0.325646
   36          1                    0.115836
   37          1                    0.128185
   38          1                    0.119650
   39          1                    0.111366
   40          1                    0.100587
   41          1                    0.118181
   42          1                    0.125122
   43          1                    0.106444
 -----------------------------------------------
    3   -2261.8808033605      2.73e-05  
         Merz-Kollman ESP Net Atomic Charges

     Atom                 Charge (a.u.)
  ----------------------------------------
      1 C                    -0.222705
      2 S                     1.017015
      3 O                    -0.497706
      4 O                    -0.508057
      5 N                    -0.845898
      6 H                     0.430884
      7 H                     0.436135
      8 S                     0.131570
      9 C                    -0.148340
     10 C                    -0.132487
     11 C                    -0.052407
     12 S                     0.877782
     13 C                    -0.005961
     14 O                    -0.530349
     15 O                    -0.536829
     16 C                    -0.145889
     17 C                    -0.289984
     18 C                     0.443426
     19 C                    -0.314716
     20 C                    -0.099649
     21 H                     0.251124
     22 H                     0.178165
     23 H                     0.182447
     24 H                     0.182306
     25 H                     0.153170
     26 C                    -0.644386
     27 N                    -0.190315
     28 H                     0.206459
     29 H                     0.241932
     30 H                     0.192086
     31 C                    -0.111240
     32 C                    -0.101628
     33 C                    -0.063500
     34 C                    -0.082186
     35 O                    -0.325263
     36 H                     0.115864
     37 H                     0.128089
     38 H                     0.119855
     39 H                     0.111522
     40 H                     0.100404
     41 H                     0.118097
     42 H                     0.124960
     43 H                     0.106201
  ----------------------------------------
  Sum of atomic charges =     0.000000

  Related Dipole Moment =     2.4786 (X -1.5097 Y -1.1381 Z -1.6029)


 Charges (in A.U.) from Merz-Kollman fitting 
 -----------------------------------------------
 Center     Atomic                  MZ       
 Number     Number                  Charge
 -----------------------------------------------
    1          6                   -0.222705
    2         16                    1.017015
    3          8                   -0.497706
    4          8                   -0.508057
    5          7                   -0.845898
    6          1                    0.430884
    7          1                    0.436135
    8         16                    0.131570
    9          6                   -0.148340
   10          6                   -0.132487
   11          6                   -0.052407
   12         16                    0.877782
   13          6                   -0.005961
   14          8                   -0.530349
   15          8                   -0.536829
   16          6                   -0.145889
   17          6                   -0.289984
   18          6                    0.443426
   19          6                   -0.314716
   20          6                   -0.099649
   21          1                    0.251124
   22          1                    0.178165
   23          1                    0.182447
   24          1                    0.182306
   25          1                    0.153170
   26          6                   -0.644386
   27          7                   -0.190315
   28          1                    0.206459
   29          1                    0.241932
   30          1                    0.192086
   31          6                   -0.111240
   32          6                   -0.101628
   33          6                   -0.063500
   34          6                   -0.082186
   35          8                   -0.325263
   36          1                    0.115864
   37          1                    0.128089
   38          1                    0.119855
   39          1                    0.111522
   40          1                    0.100404
   41          1                    0.118097
   42          1                    0.124960
   43          1                    0.106201
 -----------------------------------------------
    4   -2261.8806811727      1.39e-05  
    5   -2261.8806467633      4.00e-06  Convergence criterion met
 ---------------------------------------
 SCF time:   CPU 163.06s  wall 11.00s 
(0)  E-EN(g) gas-phase elect-nuc energy                -2261.886049276 a.u.
(1)  E-EN(liq) elect-nuc energy of solute              -2261.880646763 a.u.
(2)  G-P(liq) polarization free energy of solvation           -28.5738 kcal/mol
(3)  G-ENP(liq) elect-nuc-pol free energy of system    -2261.926181968 a.u.
(4)  G-CDS(liq) cavity-dispersion-solvent structure 
     free energy                                               -0.5344 kcal/mol
(5)  G-P-CDS(liq) = G-P(liq) + G-CDS(liq) = (2) + (4)         -29.1081 kcal/mol
(6)  G-S(liq) free energy of system = (1) + (5)        -2261.927033531 a.u.
(7)  DeltaE-EN(liq) elect-nuc reorganization
     energy of solute molecule (7) = (1) - (0)                  3.3901 kcal/mol
(8)  DeltaG-ENP(liq) elect-nuc-pol free energy
     of solvation (8) = (3) - (0)                             -25.1836 kcal/mol
(9)  DeltaG-S(liq) free energy of  solvation
     (9) = (6) - (0)                                          -25.7180 kcal/mol
 SCF   energy in the final basis set =    -2261.9270335311
 Total energy in the final basis set =    -2261.9270335311
 
 --------------------------------------------------------------
 
                    Orbital Energies (a.u.)
 --------------------------------------------------------------
 
 Alpha MOs
 -- Occupied --
-90.1789 -90.1529 -89.9897 -19.6544 -19.6530 -19.6494 -19.6493 -19.6426
-14.8009 -14.7591 -10.6270 -10.6216 -10.6079 -10.6019 -10.5967 -10.5910
-10.5907 -10.5791 -10.5785 -10.5784 -10.5764 -10.5692 -10.5688 -10.5678
-10.5673  -8.4920  -8.4705  -8.3385  -6.4143  -6.4138  -6.4135  -6.3924
 -6.3920  -6.3915  -6.2586  -6.2563  -6.2544  -1.2583  -1.2397  -1.1596
 -1.1436  -1.1326  -1.0397  -1.0348  -1.0268  -0.9852  -0.9065  -0.8823
 -0.8735  -0.8708  -0.8631  -0.8243  -0.7856  -0.7624  -0.7411  -0.7300
 -0.7121  -0.6833  -0.6799  -0.6548  -0.6501  -0.6397  -0.6155  -0.6099
 -0.5969  -0.5819  -0.5735  -0.5635  -0.5570  -0.5455  -0.5425  -0.5394
 -0.5368  -0.5276  -0.5204  -0.5094  -0.5077  -0.5036  -0.5012  -0.4938
 -0.4882  -0.4638  -0.4543  -0.4506  -0.4443  -0.4340  -0.4338  -0.4202
 -0.4199  -0.4170  -0.4154  -0.4118  -0.4046  -0.3994  -0.3980  -0.3935
 -0.3869  -0.3749  -0.3675  -0.3477  -0.3313  -0.3300  -0.3228  -0.3153
 -0.2914
 -- Virtual --
 -0.0333  -0.0114   0.0135   0.0376   0.0416   0.0828   0.0941   0.1108
  0.1167   0.1270   0.1289   0.1446   0.1521   0.1535   0.1628   0.1681
  0.1728   0.1747   0.1780   0.1836   0.1862   0.1915   0.1976   0.1984
  0.2008   0.2077   0.2158   0.2182   0.2205   0.2235   0.2333   0.2344
  0.2368   0.2485   0.2509   0.2629   0.2678   0.2853   0.2952   0.2973
  0.3041   0.3083   0.3175   0.3249   0.3329   0.3457   0.3543   0.3612
  0.3633   0.3828   0.3878   0.3927   0.3967   0.4160   0.4233   0.4413
  0.4446   0.4623   0.4977   0.5051   0.5439   0.5519   0.5577   0.5595
  0.5758   0.5822   0.5906   0.6004   0.6022   0.6069   0.6149   0.6153
  0.6230   0.6257   0.6296   0.6336   0.6368   0.6423   0.6455   0.6513
  0.6584   0.6700   0.6773   0.6780   0.6866   0.7100   0.7272   0.7326
  0.7356   0.7437   0.7624   0.7808   0.7827   0.7922   0.8015   0.8083
  0.8113   0.8214   0.8250   0.8341   0.8365   0.8444   0.8491   0.8587
  0.8643   0.8692   0.8759   0.8801   0.8825   0.8911   0.8954   0.9011
  0.9095   0.9163   0.9182   0.9237   0.9338   0.9372   0.9397   0.9457
  0.9569   0.9574   0.9638   0.9724   0.9745   0.9813   0.9831   0.9914
  0.9935   0.9941   1.0111   1.0176   1.0215   1.0258   1.0336   1.0451
  1.0492   1.0602   1.0700   1.0860   1.0891   1.0962   1.1022   1.1088
  1.1110   1.1234   1.1344   1.1455   1.1613   1.1675   1.1864   1.1896
  1.1960   1.2026   1.2178   1.2207   1.2263   1.2452   1.2582   1.2619
  1.2734   1.2835   1.2883   1.3004   1.3211   1.3283   1.3502   1.3580
  1.3803   1.3830   1.3920   1.4069   1.4171   1.4424   1.4572   1.4624
  1.4765   1.4871   1.4877   1.5051   1.5206   1.5261   1.5428   1.5651
  1.5677   1.5925   1.6041   1.6309   1.6394   1.6568   1.6726   1.7022
  1.7145   1.7377   1.7476   1.7600   1.7717   1.7944   1.8144   1.8341
  1.8354   1.8435   1.8458   1.8473   1.8555   1.8606   1.8771   1.8859
  1.8897   1.8987   1.9061   1.9165   1.9378   1.9404   1.9489   1.9556
  1.9621   1.9664   1.9761   1.9919   2.0014   2.0180   2.0263   2.0385
  2.0412   2.0491   2.0600   2.0667   2.0925   2.1004   2.1033   2.1204
  2.1225   2.1296   2.1355   2.1441   2.1542   2.1658   2.1738   2.1827
  2.1928   2.1984   2.2048   2.2152   2.2379   2.2552   2.2583   2.2668
  2.2801   2.2960   2.3022   2.3106   2.3178   2.3321   2.3484   2.3569
  2.3756   2.3904   2.4114   2.4294   2.4382   2.4539   2.4630   2.4824
  2.4907   2.5055   2.5490   2.5766   2.6044   2.6293   2.6424   2.6493
  2.6672   2.6957   2.7225   2.7351   2.7574   2.7724   2.7841   2.7879
  2.7927   2.8003   2.8243   2.8567   2.8652   2.8756   2.8977   2.9329
  2.9406   2.9674   2.9807   3.0738   3.3822   3.7049   3.8576   3.8759
  3.9073   3.9530   3.9585   4.0490   4.0618   4.0789   4.1134   4.1371
  4.1445   4.1470   4.1897   4.2139   4.2498   4.3431   4.3458   4.3566
  4.3880   4.4458   4.4955   4.5416   4.5661   4.7259
 --------------------------------------------------------------
 
          Ground-State Mulliken Net Atomic Charges

     Atom                 Charge (a.u.)
  ----------------------------------------
      1 C                    -0.432681
      2 S                     1.200033
      3 O                    -0.620993
      4 O                    -0.610721
      5 N                    -0.809172
      6 H                     0.435717
      7 H                     0.438400
      8 S                     0.422486
      9 C                    -0.349269
     10 C                    -0.167707
     11 C                    -0.064862
     12 S                     1.126851
     13 C                    -0.208725
     14 O                    -0.632553
     15 O                    -0.631213
     16 C                    -0.173576
     17 C                    -0.193878
     18 C                     0.100090
     19 C                    -0.183542
     20 C                    -0.160606
     21 H                     0.319261
     22 H                     0.277527
     23 H                     0.241373
     24 H                     0.219517
     25 H                     0.238283
     26 C                    -0.193958
     27 N                    -0.473532
     28 H                     0.219800
     29 H                     0.192112
     30 H                     0.152603
     31 C                    -0.156264
     32 C                    -0.148617
     33 C                    -0.070802
     34 C                    -0.070628
     35 O                    -0.565394
     36 H                     0.138505
     37 H                     0.182266
     38 H                     0.187915
     39 H                     0.141724
     40 H                     0.153440
     41 H                     0.188439
     42 H                     0.188963
     43 H                     0.153390
  ----------------------------------------
  Sum of atomic charges =     0.000000

         Merz-Kollman ESP Net Atomic Charges

     Atom                 Charge (a.u.)
  ----------------------------------------
      1 C                    -0.223419
      2 S                     1.017724
      3 O                    -0.497886
      4 O                    -0.508251
      5 N                    -0.845827
      6 H                     0.430835
      7 H                     0.436099
      8 S                     0.131373
      9 C                    -0.147289
     10 C                    -0.133107
     11 C                    -0.052211
     12 S                     0.878015
     13 C                    -0.006470
     14 O                    -0.530335
     15 O                    -0.536812
     16 C                    -0.145865
     17 C                    -0.290027
     18 C                     0.443896
     19 C                    -0.314713
     20 C                    -0.099655
     21 H                     0.250993
     22 H                     0.178152
     23 H                     0.182440
     24 H                     0.182324
     25 H                     0.153168
     26 C                    -0.644463
     27 N                    -0.190282
     28 H                     0.206453
     29 H                     0.241923
     30 H                     0.192076
     31 C                    -0.111250
     32 C                    -0.101759
     33 C                    -0.063217
     34 C                    -0.081968
     35 O                    -0.325449
     36 H                     0.115844
     37 H                     0.128113
     38 H                     0.119896
     39 H                     0.111527
     40 H                     0.100325
     41 H                     0.118039
     42 H                     0.124905
     43 H                     0.106134
  ----------------------------------------
  Sum of atomic charges =     0.000000

  Related Dipole Moment =     2.4812 (X -1.5097 Y -1.1392 Z -1.6059)

 -----------------------------------------------------------------
                    Cartesian Multipole Moments
 -----------------------------------------------------------------
    Charge (ESU x 10^10)
                 0.0000
    Dipole Moment (Debye)
         X      -1.5935      Y      -1.0384      Z      -1.5900
       Tot       2.4791
    Quadrupole Moments (Debye-Ang)
        XX    -175.2035     XY     -18.3644     YY    -150.0395
        XZ      25.0916     YZ      24.8261     ZZ    -182.0924
    Octopole Moments (Debye-Ang^2)
       XXX    -784.5442    XXY     341.7911    XYY    -258.1294
       YYY     561.2673    XXZ     584.8994    XYZ      -8.6805
       YYZ     511.5735    XZZ    -333.0610    YZZ     112.6459
       ZZZ    1680.3887
    Hexadecapole Moments (Debye-Ang^3)
      XXXX  -13856.6358   XXXY    5190.9146   XXYY   -3909.6410
      XYYY    3978.3130   YYYY   -7410.8874   XXXZ    5716.3275
      XXYZ   -1820.4148   XYYZ    1723.3077   YYYZ   -3086.1835
      XXZZ   -5025.9882   XYZZ    1611.9444   YYZZ   -3787.4100
      XZZZ    5365.5920   YZZZ   -3179.3063   ZZZZ  -15360.1161
 -----------------------------------------------------------------
 Total job time:  23.48s(wall), 324.11s(cpu) 
 Sat May 28 16:45:16 2022

        *************************************************************
        *                                                           *
        *  Thank you very much for using Q-Chem.  Have a nice day.  *
        *                                                           *
        *************************************************************


