                  Welcome to Q-Chem
     A Quantum Leap Into The Future Of Chemistry


 Q-Chem 5.4 (devel), Q-Chem, Inc., Pleasanton, CA (2021)

 E. Epifanovsky,  A. T. B. Gilbert,  Xintian Feng,  Joonho Lee,  Yuezhi Mao,  
 N. Mardirossian,  P. Pokhilko,  A. White,  M. Wormit,  M. P. Coons,  
 A. L. Dempwolff,  Zhengting Gan,  D. Hait,  P. R. Horn,  L. D. Jacobson,  
 I. Kaliman,  J. Kussmann,  A. W. Lange,  Ka Un Lao,  D. S. Levine,  Jie Liu,  
 S. C. McKenzie,  A. F. Morrison,  K. Nanda,  F. Plasser,  D. R. Rehn,  
 M. L. Vidal,  Zhi-Qiang You,  Ying Zhu,  B. Alam,  B. Albrecht,  
 A. Aldossary,  E. Alguire,  J. H. Andersen,  D. Barton,  K. Begam,  A. Behn,  
 Y. A. Bernard,  E. J. Berquist,  H. Burton,  A. Carreras,  K. Carter-Fenk,  
 R. Chakraborty,  A. D. Chien,  K. D. Closser,  V. Cofer-Shabica,  
 S. Dasgupta,  Jia Deng,  M. de Wergifosse,  M. Diedenhofen,  Hainam Do,  
 S. Ehlert,  Po-Tung Fang,  S. Fatehi,  Qingguo Feng,  T. Friedhoff,  
 J. Gayvert,  Qinghui Ge,  G. Gidofalvi,  M. Goldey,  J. Gomes,  
 C. Gonzalez-Espinoza,  S. Gulania,  A. Gunina,  M. W. D. Hanson-Heine,  
 P. H. P. Harbach,  A. W. Hauser,  M. F. Herbst,  M. Hernandez Vera,  
 M. Hodecker,  Z. C. Holden,  S. Houck,  Xunkun Huang,  Kerwin Hui,  
 B. C. Huynh,  M. Ivanov,  Hyunjun Ji,  Hanjie Jiang,  B. Kaduk,  S. Kaehler,  
 K. Khistyaev,  Jaehoon Kim,  P. Klunzinger,  Z. Koczor-Benda,  
 Joong Hoon Koh,  D. Kosenkov,  L. Koulias,  T. Kowalczyk,  C. M. Krauter,  
 K. Kue,  A. Kunitsa,  T. Kus,  A. Landau,  K. V. Lawler,  D. Lefrancois,  
 S. Lehtola,  Rain Li,  Yi-Pei Li,  Jiashu Liang,  M. Liebenthal,  
 Hung-Hsuan Lin,  You-Sheng Lin,  Fenglai Liu,  Kuan-Yu Liu,  
 M. Loipersberger,  A. Luenser,  A. Manjanath,  P. Manohar,  E. Mansoor,  
 S. F. Manzer,  Shan-Ping Mao,  A. V. Marenich,  T. Markovich,  S. Mason,  
 S. A. Maurer,  P. F. McLaughlin,  M. F. S. J. Menger,  J.-M. Mewes,  
 S. A. Mewes,  P. Morgante,  J. W. Mullinax,  K. J. Oosterbaan,  G. Paran,  
 Alexander C. Paul,  Suranjan K. Paul,  F. Pavosevic,  Zheng Pei,  S. Prager,  
 E. I. Proynov,  E. Ramos,  B. Rana,  A. E. Rask,  A. Rettig,  R. M. Richard,  
 F. Rob,  E. Rossomme,  T. Scheele,  M. Scheurer,  M. Schneider,  
 N. Sergueev,  S. M. Sharada,  W. Skomorowski,  D. W. Small,  C. J. Stein,  
 Yu-Chuan Su,  E. J. Sundstrom,  Zhen Tao,  J. Thirman,  T. Tsuchimochi,  
 N. M. Tubman,  S. P. Veccham,  O. Vydrov,  J. Wenzel,  J. Witte,  A. Yamada,  
 Kun Yao,  S. Yeganeh,  S. R. Yost,  A. Zech,  Igor Ying Zhang,  Xing Zhang,  
 Yu Zhang,  D. Zuev,  A. Aspuru-Guzik,  A. T. Bell,  N. A. Besley,  
 K. B. Bravaya,  B. R. Brooks,  D. Casanova,  Jeng-Da Chai,  S. Coriani,  
 C. J. Cramer,  A. E. DePrince, III,  R. A. DiStasio Jr.,  A. Dreuw,  
 B. D. Dunietz,  T. R. Furlani,  W. A. Goddard III,  S. Grimme,  
 S. Hammes-Schiffer,  T. Head-Gordon,  W. J. Hehre,  Chao-Ping Hsu,  
 T.-C. Jagau,  Yousung Jung,  A. Klamt,  Jing Kong,  D. S. Lambrecht,  
 WanZhen Liang,  N. J. Mayhall,  C. W. McCurdy,  J. B. Neaton,  
 C. Ochsenfeld,  J. A. Parkhill,  R. Peverati,  V. A. Rassolov,  Yihan Shao,  
 L. V. Slipchenko,  T. Stauch,  R. P. Steele,  J. E. Subotnik,  
 A. J. W. Thom,  A. Tkatchenko,  D. G. Truhlar,  T. Van Voorhis,  
 T. A. Wesolowski,  K. B. Whaley,  H. L. Woodcock III,  P. M. Zimmerman,  
 S. Faraji,  P. M. W. Gill,  M. Head-Gordon,  J. M. Herbert,  A. I. Krylov

 Additional authors for Version 5.4.1: 
 S. Kotaru,  Shaozhi Li,  Xiangyuan Li,  F. Matz,  A. Molle,  Haisheng Ren,  
 Yingli Su,  Hung-Yi Tsai,  C. Utku,  Fang Wang

 Contributors to earlier versions of Q-Chem not listed above: 
 R. D. Adamson,  B. Austin,  R. Baer,  J. Baker,  G. J. O. Beran,  
 K. Brandhorst,  S. T. Brown,  E. F. C. Byrd,  A. K. Chakraborty,  
 G. K. L. Chan,  Chun-Min Chang,  Yunqing Chen,  C.-L. Cheng,  
 Siu Hung Chien,  D. M. Chipman,  D. L. Crittenden,  H. Dachsel,  
 R. J. Doerksen,  A. D. Dutoi,  R. G. Edgar,  J. Fosso-Tande,  
 L. Fusti-Molnar,  D. Ghosh,  A. Ghysels,  A. Golubeva-Zadorozhnaya,  
 J. Gonthier,  M. S. Gordon,  S. R. Gwaltney,  G. Hawkins,  J. E. Herr,  
 A. Heyden,  S. Hirata,  E. G. Hohenstein,  G. Kedziora,  F. J. Keil,  
 C. Kelley,  Jihan Kim,  R. A. King,  R. Z. Khaliullin,  P. P. Korambath,  
 W. Kurlancheek,  A. Laurent,  A. M. Lee,  M. S. Lee,  S. V. Levchenko,  
 Ching Yeh Lin,  D. Liotard,  E. Livshits,  R. C. Lochan,  I. Lotan,  
 L. A. Martinez-Martinez,  P. E. Maslen,  N. Nair,  D. P. O'Neill,  
 D. Neuhauser,  E. Neuscamman,  C. M. Oana,  R. Olivares-Amaya,  R. Olson,  
 T. M. Perrine,  B. Peters,  P. A. Pieniazek,  A. Prociuk,  Y. M. Rhee,  
 J. Ritchie,  M. A. Rohrdanz,  E. Rosta,  N. J. Russ,  H. F. Schaefer III,  
 M. W. Schmidt,  N. E. Schultz,  S. Sharma,  N. Shenvi,  C. D. Sherrill,  
 A. C. Simmonett,  A. Sodt,  T. Stein,  D. Stuck,  K. S. Thanthiriwatte,  
 V. Vanovschi,  L. Vogt,  Tao Wang,  A. Warshel,  M. A. Watson,  
 C. F. Williams,  Q. Wu,  X. Xu,  Jun Yang,  W. Zhang,  Yan Zhao

 Please cite Q-Chem as follows:
 Y. Shao et al., Mol. Phys. 113, 184-215 (2015)
 DOI: 10.1080/00268976.2014.952696

 Q-Chem 5.4.1 for Intel X86 EM64T Linux

 Parts of Q-Chem use Armadillo 9.800.1 (Horizon Scraper).
 http://arma.sourceforge.net/

 Q-Chem begins on Sat Jul  2 12:21:04 2022  

 Host: gadi-cpu-clx-1208.gadi.nci.org.au
0

     Scratch files written to /jobfs/50068335.gadi-pbs/qchem1276503//
 Processing $rem in /apps/qchem/5.4.1/config/preferences:
 Processing $rem in /home/561/yj5695/.qchemrc:
 Symmetry turned off for PCM/SM12/SMD calculation
 Method-specific promolecule density matrix will be built for SM12 calculation

 Checking the input file for inconsistencies... 	...done.

--------------------------------------------------------------
User input:
--------------------------------------------------------------
$molecule
0  1
S -2.2780383065  1.2992464667 -1.0133720466
O -2.2041327799  2.7572673819 -0.9114748668
O -3.547273559  0.6268491775 -0.7252533771
N -1.1699975162  0.6996062522  0.0467865329
H -0.2437345431  1.105146176 -0.1015480054
H -1.1186474427 -0.3207715252  0.0077125163
C -1.8416705469  0.810978702 -2.699117307
N -0.5243911965  1.2973846634 -3.0628679576
C -0.2954337865  1.1843380047 -4.5316066935
C  0.2574001559 -0.2065117831 -4.6825461418
C  0.6723782894 -0.6075300669 -3.4212281469
O  0.4139659759  0.3618006115 -2.4663581526
C  0.453459343 -1.0449054576 -5.7697559202
C  1.0728807105 -2.2823790783 -5.5527083863
C  1.4868378952 -2.6585026739 -4.2725103845
C  1.2906038805 -1.819525065 -3.1690217264
H -2.5983275283  1.2964616298 -3.3217123092
H -1.9537322181 -0.2790631452 -2.7519186234
H -1.2288260201  1.3683875114 -5.0648015255
H  0.1381070653 -0.7479155695 -6.7657790992
H  1.2325406458 -2.9562973364 -6.3886180423
H  1.9634244171 -3.6228802165 -4.1239476557
H  1.6019184987 -2.1011417774 -2.1684483949
H  0.4391375663  1.9381951179 -4.8286492863
$end

$rem
jobtype sp
exchange M062X
basis 6-31+G*
SMX_GAS_PHASE = TRUE
solvent_method sm12
$end

$smx
solvent water
charges mk
$end
--------------------------------------------------------------
 ----------------------------------------------------------------
             Standard Nuclear Orientation (Angstroms)
    I     Atom           X                Y                Z
 ----------------------------------------------------------------
    1      S      -2.2780383065     1.2992464667    -1.0133720466
    2      O      -2.2041327799     2.7572673819    -0.9114748668
    3      O      -3.5472735590     0.6268491775    -0.7252533771
    4      N      -1.1699975162     0.6996062522     0.0467865329
    5      H      -0.2437345431     1.1051461760    -0.1015480054
    6      H      -1.1186474427    -0.3207715252     0.0077125163
    7      C      -1.8416705469     0.8109787020    -2.6991173070
    8      N      -0.5243911965     1.2973846634    -3.0628679576
    9      C      -0.2954337865     1.1843380047    -4.5316066935
   10      C       0.2574001559    -0.2065117831    -4.6825461418
   11      C       0.6723782894    -0.6075300669    -3.4212281469
   12      O       0.4139659759     0.3618006115    -2.4663581526
   13      C       0.4534593430    -1.0449054576    -5.7697559202
   14      C       1.0728807105    -2.2823790783    -5.5527083863
   15      C       1.4868378952    -2.6585026739    -4.2725103845
   16      C       1.2906038805    -1.8195250650    -3.1690217264
   17      H      -2.5983275283     1.2964616298    -3.3217123092
   18      H      -1.9537322181    -0.2790631452    -2.7519186234
   19      H      -1.2288260201     1.3683875114    -5.0648015255
   20      H       0.1381070653    -0.7479155695    -6.7657790992
   21      H       1.2325406458    -2.9562973364    -6.3886180423
   22      H       1.9634244171    -3.6228802165    -4.1239476557
   23      H       1.6019184987    -2.1011417774    -2.1684483949
   24      H       0.4391375663     1.9381951179    -4.8286492863
 ----------------------------------------------------------------
 Nuclear Repulsion Energy =        1053.18485987 hartrees
 There are       56 alpha and       56 beta electrons
 Requested basis set is 6-31+G(d)
 There are 91 shells and 290 basis functions

 Total QAlloc Memory Limit   2000 MB
 Mega-Array Size       188 MB
 MEM_STATIC part       192 MB
 A cutoff of  1.0D-08 yielded   3209 shell pairs
 There are     34399 function pairs
 Smallest overlap matrix eigenvalue = 2.15E-06

 Q-Chem warning in module stvman/mkSTV.C, line 323:

 Overlap eigenvalue is smaller than square root of threshold
 Use THRESH >= 12 to get rid of this warning


 Scale SEOQF with 1.000000e-01/1.000000e-01/1.000000e-02

 Standard Electronic Orientation quadrupole field applied
 Nucleus-field energy     =     0.0000000163 hartrees
 ================ Generating on-the-fly Promolecule Density  ================
Attempting to make child job directory: /jobfs/50068335.gadi-pbs/qchem1276503//Frg1/
Attempting to make child job directory: /jobfs/50068335.gadi-pbs/qchem1276503//Frg2/
Attempting to make child job directory: /jobfs/50068335.gadi-pbs/qchem1276503//Frg3/
Attempting to make child job directory: /jobfs/50068335.gadi-pbs/qchem1276503//Frg4/
Attempting to make child job directory: /jobfs/50068335.gadi-pbs/qchem1276503//Frg5/
Creating input file /jobfs/50068335.gadi-pbs/qchem1276503/Frg1.input
using default PutDataFrgm: nothing
calling putenv with: QCSCRATCH=/jobfs/50068335.gadi-pbs/qchem1276503/ 
Spawning Job For Fragment 0
Done Job For Fragment 0
calling putenv with: QCSCRATCH=/jobfs/50068335.gadi-pbs 
calling putenv with: QCTHREADS=8 
Creating input file /jobfs/50068335.gadi-pbs/qchem1276503/Frg2.input
using default PutDataFrgm: nothing
calling putenv with: QCSCRATCH=/jobfs/50068335.gadi-pbs/qchem1276503/ 
Spawning Job For Fragment 1
Done Job For Fragment 1
calling putenv with: QCSCRATCH=/jobfs/50068335.gadi-pbs 
calling putenv with: QCTHREADS=8 
Creating input file /jobfs/50068335.gadi-pbs/qchem1276503/Frg3.input
using default PutDataFrgm: nothing
calling putenv with: QCSCRATCH=/jobfs/50068335.gadi-pbs/qchem1276503/ 
Spawning Job For Fragment 2
Done Job For Fragment 2
calling putenv with: QCSCRATCH=/jobfs/50068335.gadi-pbs 
calling putenv with: QCTHREADS=8 
Creating input file /jobfs/50068335.gadi-pbs/qchem1276503/Frg4.input
using default PutDataFrgm: nothing
calling putenv with: QCSCRATCH=/jobfs/50068335.gadi-pbs/qchem1276503/ 
Spawning Job For Fragment 3
Done Job For Fragment 3
calling putenv with: QCSCRATCH=/jobfs/50068335.gadi-pbs 
calling putenv with: QCTHREADS=8 
Creating input file /jobfs/50068335.gadi-pbs/qchem1276503/Frg5.input
using default PutDataFrgm: nothing
calling putenv with: QCSCRATCH=/jobfs/50068335.gadi-pbs/qchem1276503/ 
Spawning Job For Fragment 4
Done Job For Fragment 4
calling putenv with: QCSCRATCH=/jobfs/50068335.gadi-pbs 
calling putenv with: QCTHREADS=8 
 Time for running child jobs:  CPU 1.02 s  wall 1.88 s
 ============= Method Specific Promolecule Density Constructed =============
 Guess from superposition of atomic densities
 Warning:  Energy on first SCF cycle will be non-variational
 SAD guess density has 112.000000 electrons

 -----------------------------------------------------------------------
  General SCF calculation program by
  Eric Jon Sundstrom, Paul Horn, Yuezhi Mao, Dmitri Zuev, Alec White,
  David Stuck, Shaama M.S., Shane Yost, Joonho Lee, David Small,
  Daniel Levine, Susi Lehtola, Hugh Burton, Evgeny Epifanovsky,
  Bang C. Huynh
 -----------------------------------------------------------------------
 Exchange:     0.5400 Hartree-Fock + 1.0000 M06-2X
 Correlation:  1.0000 M06-2X
 Using SG-3 standard quadrature grid
 using 8 threads for integral computing
 -------------------------------------------------------
 OpenMP Integral computing Module                
 Release: version 1.0, May 2013, Q-Chem Inc. Pittsburgh 
 -------------------------------------------------------
 A restricted SCF calculation will be
 performed using DIIS
 SCF converges when DIIS error is below 1.0e-05
 ---------------------------------------
  Cycle       Energy         DIIS error
 ---------------------------------------
    1   -1048.2414571718      4.48e-02  
    2   -1043.5451927652      5.43e-03  
    3   -1043.3557167791      7.52e-03  
    4   -1043.8064125832      7.85e-04  
    5   -1043.8111548253      3.34e-04  
    6   -1043.8121280093      7.27e-05  
    7   -1043.8121742274      2.39e-05  
    8   -1043.8121806052      6.31e-06  Convergence criterion met
 ---------------------------------------
 SCF time:   CPU 107.93s  wall 14.00s 
 SCF   energy in the final basis set =    -1043.8121806052
 Total energy in the final basis set =    -1043.8121806052
 Exchange:     0.5400 Hartree-Fock + 1.0000 M06-2X
 Correlation:  1.0000 M06-2X
 Using SG-3 standard quadrature grid
 
 SM12 calculation using Merz-Singh-Kollman charges
 Citation of the SM12 model:
 Marenich, A.V.; Cramer, C.J.; Truhlar, D.G.
 J. Chem. Theory Comput. 2013, 9, 609-612.
 iSolventCode=           1
 Solvent: water                                                           
 
  Building new vdw surfaces
         Merz-Kollman ESP Net Atomic Charges

     Atom                 Charge (a.u.)
  ----------------------------------------
      1 S                     1.217010
      2 O                    -0.527572
      3 O                    -0.550350
      4 N                    -0.890706
      5 H                     0.443700
      6 H                     0.416725
      7 C                    -0.730023
      8 N                    -0.073897
      9 C                    -0.163646
     10 C                     0.085545
     11 C                     0.495437
     12 O                    -0.354718
     13 C                    -0.267165
     14 C                    -0.201159
     15 C                    -0.134763
     16 C                    -0.384046
     17 H                     0.326775
     18 H                     0.249403
     19 H                     0.160933
     20 H                     0.183395
     21 H                     0.174267
     22 H                     0.172435
     23 H                     0.209784
     24 H                     0.142637
  ----------------------------------------
  Sum of atomic charges =     0.000000

  Related Dipole Moment =     7.8279 (X  4.1339 Y -4.2528 Z -5.1090)


 Charges (in A.U.) from Merz-Kollman fitting 
 -----------------------------------------------
 Center     Atomic                  MZ       
 Number     Number                  Charge
 -----------------------------------------------
    1         16                    1.217010
    2          8                   -0.527572
    3          8                   -0.550350
    4          7                   -0.890706
    5          1                    0.443700
    6          1                    0.416725
    7          6                   -0.730023
    8          7                   -0.073897
    9          6                   -0.163646
   10          6                    0.085545
   11          6                    0.495437
   12          8                   -0.354718
   13          6                   -0.267165
   14          6                   -0.201159
   15          6                   -0.134763
   16          6                   -0.384046
   17          1                    0.326775
   18          1                    0.249403
   19          1                    0.160933
   20          1                    0.183395
   21          1                    0.174267
   22          1                    0.172435
   23          1                    0.209784
   24          1                    0.142637
 -----------------------------------------------
 A restricted SCF calculation will be
 performed using Roothaan-Hall, DIIS
 SCF converges when DIIS error is below 1.0e-05
 ---------------------------------------
  Cycle       Energy         DIIS error
 ---------------------------------------
         Merz-Kollman ESP Net Atomic Charges

     Atom                 Charge (a.u.)
  ----------------------------------------
      1 S                     1.283538
      2 O                    -0.602635
      3 O                    -0.612208
      4 N                    -0.895475
      5 H                     0.460135
      6 H                     0.438679
      7 C                    -0.736145
      8 N                    -0.082234
      9 C                    -0.171911
     10 C                     0.116550
     11 C                     0.506554
     12 O                    -0.372435
     13 C                    -0.283604
     14 C                    -0.226580
     15 C                    -0.161569
     16 C                    -0.402821
     17 H                     0.346373
     18 H                     0.264905
     19 H                     0.180401
     20 H                     0.198669
     21 H                     0.187135
     22 H                     0.187291
     23 H                     0.226714
     24 H                     0.150674
  ----------------------------------------
  Sum of atomic charges =     0.000000

  Related Dipole Moment =     8.7691 (X  4.6641 Y -4.6928 Z -5.7552)


 Charges (in A.U.) from Merz-Kollman fitting 
 -----------------------------------------------
 Center     Atomic                  MZ       
 Number     Number                  Charge
 -----------------------------------------------
    1         16                    1.283538
    2          8                   -0.602635
    3          8                   -0.612208
    4          7                   -0.895475
    5          1                    0.460135
    6          1                    0.438679
    7          6                   -0.736145
    8          7                   -0.082234
    9          6                   -0.171911
   10          6                    0.116550
   11          6                    0.506554
   12          8                   -0.372435
   13          6                   -0.283604
   14          6                   -0.226580
   15          6                   -0.161569
   16          6                   -0.402821
   17          1                    0.346373
   18          1                    0.264905
   19          1                    0.180401
   20          1                    0.198669
   21          1                    0.187135
   22          1                    0.187291
   23          1                    0.226714
   24          1                    0.150674
 -----------------------------------------------
    1   -1043.8121813446      4.41e-04  Roothaan Step
 ---------------------------------------
  Cycle       Energy         DIIS error
 ---------------------------------------
         Merz-Kollman ESP Net Atomic Charges

     Atom                 Charge (a.u.)
  ----------------------------------------
      1 S                     1.247376
      2 O                    -0.571211
      3 O                    -0.589950
      4 N                    -0.901327
      5 H                     0.461711
      6 H                     0.438227
      7 C                    -0.803159
      8 N                    -0.055559
      9 C                    -0.200324
     10 C                     0.103916
     11 C                     0.513436
     12 O                    -0.370041
     13 C                    -0.287121
     14 C                    -0.212527
     15 C                    -0.145955
     16 C                    -0.408821
     17 H                     0.364586
     18 H                     0.274887
     19 H                     0.188137
     20 H                     0.200181
     21 H                     0.183118
     22 H                     0.182886
     23 H                     0.226665
     24 H                     0.160870
  ----------------------------------------
  Sum of atomic charges =     0.000000

  Related Dipole Moment =     8.7372 (X  4.6878 Y -4.6145 Z -5.7506)


 Charges (in A.U.) from Merz-Kollman fitting 
 -----------------------------------------------
 Center     Atomic                  MZ       
 Number     Number                  Charge
 -----------------------------------------------
    1         16                    1.247376
    2          8                   -0.571211
    3          8                   -0.589950
    4          7                   -0.901327
    5          1                    0.461711
    6          1                    0.438227
    7          6                   -0.803159
    8          7                   -0.055559
    9          6                   -0.200324
   10          6                    0.103916
   11          6                    0.513436
   12          8                   -0.370041
   13          6                   -0.287121
   14          6                   -0.212527
   15          6                   -0.145955
   16          6                   -0.408821
   17          1                    0.364586
   18          1                    0.274887
   19          1                    0.188137
   20          1                    0.200181
   21          1                    0.183118
   22          1                    0.182886
   23          1                    0.226665
   24          1                    0.160870
 -----------------------------------------------
    1   -1043.8060978649      3.33e-04  
         Merz-Kollman ESP Net Atomic Charges

     Atom                 Charge (a.u.)
  ----------------------------------------
      1 S                     1.290569
      2 O                    -0.600149
      3 O                    -0.612395
      4 N                    -0.900490
      5 H                     0.461594
      6 H                     0.439009
      7 C                    -0.777128
      8 N                    -0.063323
      9 C                    -0.195884
     10 C                     0.117056
     11 C                     0.512734
     12 O                    -0.374226
     13 C                    -0.288798
     14 C                    -0.219848
     15 C                    -0.156085
     16 C                    -0.407518
     17 H                     0.357266
     18 H                     0.271659
     19 H                     0.187685
     20 H                     0.200857
     21 H                     0.185449
     22 H                     0.185811
     23 H                     0.227659
     24 H                     0.158495
  ----------------------------------------
  Sum of atomic charges =     0.000000

  Related Dipole Moment =     8.8527 (X  4.7471 Y -4.6909 Z -5.8165)


 Charges (in A.U.) from Merz-Kollman fitting 
 -----------------------------------------------
 Center     Atomic                  MZ       
 Number     Number                  Charge
 -----------------------------------------------
    1         16                    1.290569
    2          8                   -0.600149
    3          8                   -0.612395
    4          7                   -0.900490
    5          1                    0.461594
    6          1                    0.439009
    7          6                   -0.777128
    8          7                   -0.063323
    9          6                   -0.195884
   10          6                    0.117056
   11          6                    0.512734
   12          8                   -0.374226
   13          6                   -0.288798
   14          6                   -0.219848
   15          6                   -0.156085
   16          6                   -0.407518
   17          1                    0.357266
   18          1                    0.271659
   19          1                    0.187685
   20          1                    0.200857
   21          1                    0.185449
   22          1                    0.185811
   23          1                    0.227659
   24          1                    0.158495
 -----------------------------------------------
    2   -1043.8074860980      4.17e-04  
         Merz-Kollman ESP Net Atomic Charges

     Atom                 Charge (a.u.)
  ----------------------------------------
      1 S                     1.282135
      2 O                    -0.597569
      3 O                    -0.610747
      4 N                    -0.899961
      5 H                     0.462113
      6 H                     0.439660
      7 C                    -0.777207
      8 N                    -0.065440
      9 C                    -0.192893
     10 C                     0.116834
     11 C                     0.511460
     12 O                    -0.373750
     13 C                    -0.288911
     14 C                    -0.220553
     15 C                    -0.157286
     16 C                    -0.407328
     17 H                     0.358655
     18 H                     0.272390
     19 H                     0.187774
     20 H                     0.201474
     21 H                     0.185971
     22 H                     0.186437
     23 H                     0.228310
     24 H                     0.158432
  ----------------------------------------
  Sum of atomic charges =     0.000000

  Related Dipole Moment =     8.8773 (X  4.7535 Y -4.6901 Z -5.8493)


 Charges (in A.U.) from Merz-Kollman fitting 
 -----------------------------------------------
 Center     Atomic                  MZ       
 Number     Number                  Charge
 -----------------------------------------------
    1         16                    1.282135
    2          8                   -0.597569
    3          8                   -0.610747
    4          7                   -0.899961
    5          1                    0.462113
    6          1                    0.439660
    7          6                   -0.777207
    8          7                   -0.065440
    9          6                   -0.192893
   10          6                    0.116834
   11          6                    0.511460
   12          8                   -0.373750
   13          6                   -0.288911
   14          6                   -0.220553
   15          6                   -0.157286
   16          6                   -0.407328
   17          1                    0.358655
   18          1                    0.272390
   19          1                    0.187774
   20          1                    0.201474
   21          1                    0.185971
   22          1                    0.186437
   23          1                    0.228310
   24          1                    0.158432
 -----------------------------------------------
    3   -1043.8069350901      3.31e-05  
         Merz-Kollman ESP Net Atomic Charges

     Atom                 Charge (a.u.)
  ----------------------------------------
      1 S                     1.286122
      2 O                    -0.599276
      3 O                    -0.611940
      4 N                    -0.900380
      5 H                     0.462128
      6 H                     0.439621
      7 C                    -0.780180
      8 N                    -0.063224
      9 C                    -0.195806
     10 C                     0.117047
     11 C                     0.511994
     12 O                    -0.374127
     13 C                    -0.289509
     14 C                    -0.219732
     15 C                    -0.156876
     16 C                    -0.407680
     17 H                     0.359177
     18 H                     0.272898
     19 H                     0.188562
     20 H                     0.201625
     21 H                     0.185753
     22 H                     0.186260
     23 H                     0.228341
     24 H                     0.159203
  ----------------------------------------
  Sum of atomic charges =     0.000000

  Related Dipole Moment =     8.8886 (X  4.7636 Y -4.6973 Z -5.8524)


 Charges (in A.U.) from Merz-Kollman fitting 
 -----------------------------------------------
 Center     Atomic                  MZ       
 Number     Number                  Charge
 -----------------------------------------------
    1         16                    1.286122
    2          8                   -0.599276
    3          8                   -0.611940
    4          7                   -0.900380
    5          1                    0.462128
    6          1                    0.439621
    7          6                   -0.780180
    8          7                   -0.063224
    9          6                   -0.195806
   10          6                    0.117047
   11          6                    0.511994
   12          8                   -0.374127
   13          6                   -0.289509
   14          6                   -0.219732
   15          6                   -0.156876
   16          6                   -0.407680
   17          1                    0.359177
   18          1                    0.272898
   19          1                    0.188562
   20          1                    0.201625
   21          1                    0.185753
   22          1                    0.186260
   23          1                    0.228341
   24          1                    0.159203
 -----------------------------------------------
    4   -1043.8067676645      1.65e-05  
    5   -1043.8067156384      3.56e-06  Convergence criterion met
 ---------------------------------------
 SCF time:   CPU 95.02s  wall 11.00s 
(0)  E-EN(g) gas-phase elect-nuc energy                -1043.812180605 a.u.
(1)  E-EN(liq) elect-nuc energy of solute              -1043.806715638 a.u.
(2)  G-P(liq) polarization free energy of solvation           -24.7536 kcal/mol
(3)  G-ENP(liq) elect-nuc-pol free energy of system    -1043.846163090 a.u.
(4)  G-CDS(liq) cavity-dispersion-solvent structure 
     free energy                                                0.6512 kcal/mol
(5)  G-P-CDS(liq) = G-P(liq) + G-CDS(liq) = (2) + (4)         -24.1025 kcal/mol
(6)  G-S(liq) free energy of system = (1) + (5)        -1043.845125369 a.u.
(7)  DeltaE-EN(liq) elect-nuc reorganization
     energy of solute molecule (7) = (1) - (0)                  3.4293 kcal/mol
(8)  DeltaG-ENP(liq) elect-nuc-pol free energy
     of solvation (8) = (3) - (0)                             -21.3243 kcal/mol
(9)  DeltaG-S(liq) free energy of  solvation
     (9) = (6) - (0)                                          -20.6732 kcal/mol
 SCF   energy in the final basis set =    -1043.8451253690
 Total energy in the final basis set =    -1043.8451253690
 
 --------------------------------------------------------------
 
                    Orbital Energies (a.u.)
 --------------------------------------------------------------
 
 Alpha MOs
 -- Occupied --
-90.1707 -19.7200 -19.6579 -19.6567 -14.8507 -14.8045 -10.6305 -10.6238
-10.6034 -10.5743 -10.5724 -10.5707 -10.5698 -10.5636  -8.4855  -6.4077
 -6.4072  -6.4061  -1.2592  -1.2488  -1.1429  -1.0352  -1.0163  -0.9785
 -0.8974  -0.8563  -0.8434  -0.7580  -0.7249  -0.7094  -0.6951  -0.6374
 -0.6198  -0.6078  -0.6012  -0.5846  -0.5802  -0.5516  -0.5384  -0.5269
 -0.5160  -0.5121  -0.4944  -0.4813  -0.4665  -0.4377  -0.4347  -0.4294
 -0.4202  -0.4149  -0.3991  -0.3970  -0.3798  -0.3431  -0.3203  -0.2922
 -- Virtual --
 -0.0024   0.0027   0.0166   0.0187   0.0230   0.0345   0.0388   0.0431
  0.0531   0.0540   0.0597   0.0621   0.0631   0.0716   0.0829   0.0866
  0.0916   0.0951   0.1002   0.1094   0.1169   0.1216   0.1257   0.1295
  0.1312   0.1406   0.1443   0.1475   0.1523   0.1570   0.1573   0.1697
  0.1756   0.1787   0.1833   0.1913   0.1924   0.1990   0.2033   0.2049
  0.2059   0.2143   0.2221   0.2293   0.2339   0.2403   0.2426   0.2449
  0.2518   0.2576   0.2599   0.2630   0.2684   0.2748   0.2757   0.2836
  0.2928   0.2965   0.3037   0.3096   0.3123   0.3156   0.3186   0.3217
  0.3287   0.3325   0.3450   0.3549   0.3624   0.3647   0.3693   0.3911
  0.3951   0.3996   0.4095   0.4273   0.4302   0.4396   0.4549   0.4670
  0.4828   0.4916   0.5682   0.5948   0.6253   0.6377   0.6586   0.6692
  0.6796   0.6947   0.7244   0.7310   0.7382   0.7523   0.7709   0.7771
  0.7833   0.7897   0.8059   0.8177   0.8342   0.8430   0.8558   0.8627
  0.8750   0.9191   0.9332   0.9499   0.9701   0.9811   0.9887   0.9971
  1.0032   1.0107   1.0334   1.0466   1.0522   1.0651   1.0679   1.0883
  1.1052   1.1141   1.1222   1.1324   1.1439   1.1501   1.1619   1.1830
  1.1946   1.2072   1.2209   1.2294   1.2364   1.2736   1.2863   1.3016
  1.3105   1.3305   1.3387   1.3460   1.3521   1.3721   1.3920   1.4021
  1.4095   1.4193   1.4344   1.4540   1.4605   1.4669   1.4859   1.5204
  1.5306   1.5345   1.5707   1.6293   1.6327   1.6653   1.7214   1.7277
  1.7537   1.7845   1.8159   1.8202   1.8373   1.8441   1.8545   1.8621
  1.8756   1.9120   1.9230   1.9478   1.9607   1.9862   1.9969   2.0150
  2.0217   2.0304   2.0520   2.0594   2.0778   2.1120   2.1165   2.1437
  2.1540   2.1729   2.1783   2.1822   2.2143   2.2467   2.2592   2.2798
  2.2902   2.3107   2.3259   2.3569   2.3917   2.4020   2.4625   2.4935
  2.5240   2.5378   2.5597   2.5857   2.6435   2.6688   2.6801   2.6962
  2.7455   2.7670   2.8108   2.8349   2.8690   2.8725   2.9642   2.9734
  3.0475   3.0899   3.2143   3.4439   3.8902   4.0572   4.1345   4.2001
  4.2089   4.2697   4.2933   4.3656   4.4255   4.4305   4.4891   4.5527
  4.6911   4.8659
 --------------------------------------------------------------
 
          Ground-State Mulliken Net Atomic Charges

     Atom                 Charge (a.u.)
  ----------------------------------------
      1 S                     1.138159
      2 O                    -0.809625
      3 O                    -0.773955
      4 N                    -0.971096
      5 H                     0.511168
      6 H                     0.530971
      7 C                    -0.302736
      8 N                    -0.410679
      9 C                     0.172655
     10 C                     1.373404
     11 C                    -0.420005
     12 O                    -0.198448
     13 C                    -1.065073
     14 C                    -0.384425
     15 C                    -0.697308
     16 C                     0.023452
     17 H                     0.322367
     18 H                     0.324427
     19 H                     0.290586
     20 H                     0.271966
     21 H                     0.251861
     22 H                     0.258122
     23 H                     0.277061
     24 H                     0.287151
  ----------------------------------------
  Sum of atomic charges =     0.000000

         Merz-Kollman ESP Net Atomic Charges

     Atom                 Charge (a.u.)
  ----------------------------------------
      1 S                     1.286583
      2 O                    -0.599316
      3 O                    -0.612183
      4 N                    -0.900522
      5 H                     0.462111
      6 H                     0.439602
      7 C                    -0.780153
      8 N                    -0.063446
      9 C                    -0.195838
     10 C                     0.117610
     11 C                     0.511930
     12 O                    -0.374094
     13 C                    -0.289616
     14 C                    -0.219806
     15 C                    -0.157144
     16 C                    -0.407545
     17 H                     0.359154
     18 H                     0.272901
     19 H                     0.188569
     20 H                     0.201625
     21 H                     0.185762
     22 H                     0.186292
     23 H                     0.228315
     24 H                     0.159207
  ----------------------------------------
  Sum of atomic charges =     0.000000

  Related Dipole Moment =     8.8886 (X  4.7637 Y -4.6949 Z -5.8543)

 -----------------------------------------------------------------
                    Cartesian Multipole Moments
 -----------------------------------------------------------------
    Charge (ESU x 10^10)
                -0.0000
    Dipole Moment (Debye)
         X       4.7755      Y      -4.6768      Z      -5.8262
       Tot       8.8669
    Quadrupole Moments (Debye-Ang)
        XX    -109.7080     XY       5.7273     YY     -96.8184
        XZ       5.7804     YZ       0.3961     ZZ     -53.3322
    Octopole Moments (Debye-Ang^2)
       XXX     234.0147    XXY     -36.0572    XYY      96.4668
       YYY     -91.2946    XXZ     255.9649    XYZ      17.1408
       YYZ     240.2122    XZZ      21.5657    YZZ      -2.1361
       ZZZ     544.9742
    Hexadecapole Moments (Debye-Ang^3)
      XXXX   -1857.2784   XXXY     558.8007   XXYY    -510.8976
      XYYY     533.8705   YYYY   -1400.0602   XXXZ     112.7525
      XXYZ    -126.1212   XYYZ     -48.9837   YYYZ    -259.7134
      XXZZ   -1281.9393   XYZZ      63.8901   YYZZ   -1126.0798
      XZZZ     218.8437   YZZZ    -369.3969   ZZZZ   -4930.7232
 -----------------------------------------------------------------
 Total job time:  27.95s(wall), 207.52s(cpu) 
 Sat Jul  2 12:21:32 2022

        *************************************************************
        *                                                           *
        *  Thank you very much for using Q-Chem.  Have a nice day.  *
        *                                                           *
        *************************************************************


