                  Welcome to Q-Chem
     A Quantum Leap Into The Future Of Chemistry


 Q-Chem 5.4 (devel), Q-Chem, Inc., Pleasanton, CA (2021)

 E. Epifanovsky,  A. T. B. Gilbert,  Xintian Feng,  Joonho Lee,  Yuezhi Mao,  
 N. Mardirossian,  P. Pokhilko,  A. White,  M. Wormit,  M. P. Coons,  
 A. L. Dempwolff,  Zhengting Gan,  D. Hait,  P. R. Horn,  L. D. Jacobson,  
 I. Kaliman,  J. Kussmann,  A. W. Lange,  Ka Un Lao,  D. S. Levine,  Jie Liu,  
 S. C. McKenzie,  A. F. Morrison,  K. Nanda,  F. Plasser,  D. R. Rehn,  
 M. L. Vidal,  Zhi-Qiang You,  Ying Zhu,  B. Alam,  B. Albrecht,  
 A. Aldossary,  E. Alguire,  J. H. Andersen,  D. Barton,  K. Begam,  A. Behn,  
 Y. A. Bernard,  E. J. Berquist,  H. Burton,  A. Carreras,  K. Carter-Fenk,  
 R. Chakraborty,  A. D. Chien,  K. D. Closser,  V. Cofer-Shabica,  
 S. Dasgupta,  Jia Deng,  M. de Wergifosse,  M. Diedenhofen,  Hainam Do,  
 S. Ehlert,  Po-Tung Fang,  S. Fatehi,  Qingguo Feng,  T. Friedhoff,  
 J. Gayvert,  Qinghui Ge,  G. Gidofalvi,  M. Goldey,  J. Gomes,  
 C. Gonzalez-Espinoza,  S. Gulania,  A. Gunina,  M. W. D. Hanson-Heine,  
 P. H. P. Harbach,  A. W. Hauser,  M. F. Herbst,  M. Hernandez Vera,  
 M. Hodecker,  Z. C. Holden,  S. Houck,  Xunkun Huang,  Kerwin Hui,  
 B. C. Huynh,  M. Ivanov,  Hyunjun Ji,  Hanjie Jiang,  B. Kaduk,  S. Kaehler,  
 K. Khistyaev,  Jaehoon Kim,  P. Klunzinger,  Z. Koczor-Benda,  
 Joong Hoon Koh,  D. Kosenkov,  L. Koulias,  T. Kowalczyk,  C. M. Krauter,  
 K. Kue,  A. Kunitsa,  T. Kus,  A. Landau,  K. V. Lawler,  D. Lefrancois,  
 S. Lehtola,  Rain Li,  Yi-Pei Li,  Jiashu Liang,  M. Liebenthal,  
 Hung-Hsuan Lin,  You-Sheng Lin,  Fenglai Liu,  Kuan-Yu Liu,  
 M. Loipersberger,  A. Luenser,  A. Manjanath,  P. Manohar,  E. Mansoor,  
 S. F. Manzer,  Shan-Ping Mao,  A. V. Marenich,  T. Markovich,  S. Mason,  
 S. A. Maurer,  P. F. McLaughlin,  M. F. S. J. Menger,  J.-M. Mewes,  
 S. A. Mewes,  P. Morgante,  J. W. Mullinax,  K. J. Oosterbaan,  G. Paran,  
 Alexander C. Paul,  Suranjan K. Paul,  F. Pavosevic,  Zheng Pei,  S. Prager,  
 E. I. Proynov,  E. Ramos,  B. Rana,  A. E. Rask,  A. Rettig,  R. M. Richard,  
 F. Rob,  E. Rossomme,  T. Scheele,  M. Scheurer,  M. Schneider,  
 N. Sergueev,  S. M. Sharada,  W. Skomorowski,  D. W. Small,  C. J. Stein,  
 Yu-Chuan Su,  E. J. Sundstrom,  Zhen Tao,  J. Thirman,  T. Tsuchimochi,  
 N. M. Tubman,  S. P. Veccham,  O. Vydrov,  J. Wenzel,  J. Witte,  A. Yamada,  
 Kun Yao,  S. Yeganeh,  S. R. Yost,  A. Zech,  Igor Ying Zhang,  Xing Zhang,  
 Yu Zhang,  D. Zuev,  A. Aspuru-Guzik,  A. T. Bell,  N. A. Besley,  
 K. B. Bravaya,  B. R. Brooks,  D. Casanova,  Jeng-Da Chai,  S. Coriani,  
 C. J. Cramer,  A. E. DePrince, III,  R. A. DiStasio Jr.,  A. Dreuw,  
 B. D. Dunietz,  T. R. Furlani,  W. A. Goddard III,  S. Grimme,  
 S. Hammes-Schiffer,  T. Head-Gordon,  W. J. Hehre,  Chao-Ping Hsu,  
 T.-C. Jagau,  Yousung Jung,  A. Klamt,  Jing Kong,  D. S. Lambrecht,  
 WanZhen Liang,  N. J. Mayhall,  C. W. McCurdy,  J. B. Neaton,  
 C. Ochsenfeld,  J. A. Parkhill,  R. Peverati,  V. A. Rassolov,  Yihan Shao,  
 L. V. Slipchenko,  T. Stauch,  R. P. Steele,  J. E. Subotnik,  
 A. J. W. Thom,  A. Tkatchenko,  D. G. Truhlar,  T. Van Voorhis,  
 T. A. Wesolowski,  K. B. Whaley,  H. L. Woodcock III,  P. M. Zimmerman,  
 S. Faraji,  P. M. W. Gill,  M. Head-Gordon,  J. M. Herbert,  A. I. Krylov

 Additional authors for Version 5.4.1: 
 S. Kotaru,  Shaozhi Li,  Xiangyuan Li,  F. Matz,  A. Molle,  Haisheng Ren,  
 Yingli Su,  Hung-Yi Tsai,  C. Utku,  Fang Wang

 Contributors to earlier versions of Q-Chem not listed above: 
 R. D. Adamson,  B. Austin,  R. Baer,  J. Baker,  G. J. O. Beran,  
 K. Brandhorst,  S. T. Brown,  E. F. C. Byrd,  A. K. Chakraborty,  
 G. K. L. Chan,  Chun-Min Chang,  Yunqing Chen,  C.-L. Cheng,  
 Siu Hung Chien,  D. M. Chipman,  D. L. Crittenden,  H. Dachsel,  
 R. J. Doerksen,  A. D. Dutoi,  R. G. Edgar,  J. Fosso-Tande,  
 L. Fusti-Molnar,  D. Ghosh,  A. Ghysels,  A. Golubeva-Zadorozhnaya,  
 J. Gonthier,  M. S. Gordon,  S. R. Gwaltney,  G. Hawkins,  J. E. Herr,  
 A. Heyden,  S. Hirata,  E. G. Hohenstein,  G. Kedziora,  F. J. Keil,  
 C. Kelley,  Jihan Kim,  R. A. King,  R. Z. Khaliullin,  P. P. Korambath,  
 W. Kurlancheek,  A. Laurent,  A. M. Lee,  M. S. Lee,  S. V. Levchenko,  
 Ching Yeh Lin,  D. Liotard,  E. Livshits,  R. C. Lochan,  I. Lotan,  
 L. A. Martinez-Martinez,  P. E. Maslen,  N. Nair,  D. P. O'Neill,  
 D. Neuhauser,  E. Neuscamman,  C. M. Oana,  R. Olivares-Amaya,  R. Olson,  
 T. M. Perrine,  B. Peters,  P. A. Pieniazek,  A. Prociuk,  Y. M. Rhee,  
 J. Ritchie,  M. A. Rohrdanz,  E. Rosta,  N. J. Russ,  H. F. Schaefer III,  
 M. W. Schmidt,  N. E. Schultz,  S. Sharma,  N. Shenvi,  C. D. Sherrill,  
 A. C. Simmonett,  A. Sodt,  T. Stein,  D. Stuck,  K. S. Thanthiriwatte,  
 V. Vanovschi,  L. Vogt,  Tao Wang,  A. Warshel,  M. A. Watson,  
 C. F. Williams,  Q. Wu,  X. Xu,  Jun Yang,  W. Zhang,  Yan Zhao

 Please cite Q-Chem as follows:
 Y. Shao et al., Mol. Phys. 113, 184-215 (2015)
 DOI: 10.1080/00268976.2014.952696

 Q-Chem 5.4.1 for Intel X86 EM64T Linux

 Parts of Q-Chem use Armadillo 9.800.1 (Horizon Scraper).
 http://arma.sourceforge.net/

 Q-Chem begins on Sat Jul  2 12:47:56 2022  

 Host: gadi-cpu-clx-0856.gadi.nci.org.au
0

     Scratch files written to /jobfs/50070108.gadi-pbs/qchem2443346//
 Processing $rem in /apps/qchem/5.4.1/config/preferences:
 Processing $rem in /home/561/yj5695/.qchemrc:
 Symmetry turned off for PCM/SM12/SMD calculation
 Method-specific promolecule density matrix will be built for SM12 calculation

 Checking the input file for inconsistencies... 	...done.

--------------------------------------------------------------
User input:
--------------------------------------------------------------
$molecule
0  1
C -1.9901823024  1.4106962141 -1.3453003275
C -2.5691702855  0.1734449965 -1.0448219949
Cl -4.0331302942  0.0417034118 -0.1127729296
C -1.976987631 -0.9947172618 -1.5064240083
H -2.42617221 -1.9546275657 -1.2735717576
C -0.8108622535 -0.9284899217 -2.265145955
C -0.2354274558  0.3014613864 -2.5794460473
C -0.8292487706  1.4726551208 -2.1101581845
S -2.6728832772  2.9620179314 -0.7656545216
O -2.8500975472  2.876508648  0.6813234676
O -1.8317156369  4.0185405564 -1.320993181
N -4.1672832703  3.177627811 -1.4151204277
H -4.8630411152  2.52341462 -1.0549424125
H -4.1538112873  3.1889719079 -2.4369748397
H -0.3932077896  2.4422412458 -2.3301534087
C  1.0759554873  0.3607372407 -3.361438242
N  1.1838059052  1.5826396982 -4.1494621312
C  2.271603975  0.5003656436 -2.4310815137
C  2.1669351482  2.4291685397 -3.7334328903
C  2.9006558474  1.7179095916 -2.6540476601
O  2.385275687  3.5554741735 -4.1769946166
C  2.7435222813 -0.3905824106 -1.4797092569
C  3.8760293986 -0.0135385813 -0.7515627877
C  4.5066583178  1.2177622986 -0.9721712739
C  4.0233988533  2.1059112711 -1.9341362284
O  1.2639837512 -0.798930937 -4.1377020652
H -0.3557387538 -1.8499462251 -2.6133944562
H  0.4254572357  1.9034351694 -4.7448225848
H  2.252512121 -1.3436757286 -1.3019989244
H  4.2731906457 -0.6862809725  0.0026212032
H  5.3818441464  1.4812699673 -0.3864187852
H  4.5046249371  3.0622453327 -2.1174588037
H  0.486513142 -0.932537172 -4.7089934542
$end

$rem
jobtype sp
exchange M062X
basis 6-31+G*
SMX_GAS_PHASE = TRUE
solvent_method sm12
$end

$smx
solvent water
charges mk
$end
--------------------------------------------------------------
 ----------------------------------------------------------------
             Standard Nuclear Orientation (Angstroms)
    I     Atom           X                Y                Z
 ----------------------------------------------------------------
    1      C      -1.9901823024     1.4106962141    -1.3453003275
    2      C      -2.5691702855     0.1734449965    -1.0448219949
    3      Cl     -4.0331302942     0.0417034118    -0.1127729296
    4      C      -1.9769876310    -0.9947172618    -1.5064240083
    5      H      -2.4261722100    -1.9546275657    -1.2735717576
    6      C      -0.8108622535    -0.9284899217    -2.2651459550
    7      C      -0.2354274558     0.3014613864    -2.5794460473
    8      C      -0.8292487706     1.4726551208    -2.1101581845
    9      S      -2.6728832772     2.9620179314    -0.7656545216
   10      O      -2.8500975472     2.8765086480     0.6813234676
   11      O      -1.8317156369     4.0185405564    -1.3209931810
   12      N      -4.1672832703     3.1776278110    -1.4151204277
   13      H      -4.8630411152     2.5234146200    -1.0549424125
   14      H      -4.1538112873     3.1889719079    -2.4369748397
   15      H      -0.3932077896     2.4422412458    -2.3301534087
   16      C       1.0759554873     0.3607372407    -3.3614382420
   17      N       1.1838059052     1.5826396982    -4.1494621312
   18      C       2.2716039750     0.5003656436    -2.4310815137
   19      C       2.1669351482     2.4291685397    -3.7334328903
   20      C       2.9006558474     1.7179095916    -2.6540476601
   21      O       2.3852756870     3.5554741735    -4.1769946166
   22      C       2.7435222813    -0.3905824106    -1.4797092569
   23      C       3.8760293986    -0.0135385813    -0.7515627877
   24      C       4.5066583178     1.2177622986    -0.9721712739
   25      C       4.0233988533     2.1059112711    -1.9341362284
   26      O       1.2639837512    -0.7989309370    -4.1377020652
   27      H      -0.3557387538    -1.8499462251    -2.6133944562
   28      H       0.4254572357     1.9034351694    -4.7448225848
   29      H       2.2525121210    -1.3436757286    -1.3019989244
   30      H       4.2731906457    -0.6862809725     0.0026212032
   31      H       5.3818441464     1.4812699673    -0.3864187852
   32      H       4.5046249371     3.0622453327    -2.1174588037
   33      H       0.4865131420    -0.9325371720    -4.7089934542
 ----------------------------------------------------------------
 Nuclear Repulsion Energy =        2114.66232375 hartrees
 There are       87 alpha and       87 beta electrons
 Requested basis set is 6-31+G(d)
 There are 134 shells and 448 basis functions

 Total QAlloc Memory Limit   2000 MB
 Mega-Array Size       188 MB
 MEM_STATIC part       192 MB
 A cutoff of  1.0D-08 yielded   6047 shell pairs
 There are     72801 function pairs
 Smallest overlap matrix eigenvalue = 3.90E-07

 Q-Chem warning in module stvman/mkSTV.C, line 323:

 Overlap eigenvalue is smaller than square root of threshold
 Use THRESH >= 12 to get rid of this warning

 Linear dependence detected in AO basis
 Tighter screening thresholds may be required for diffuse basis sets
 Use S2THRESH > 14 and THRESH = 14 in case of SCF convergence issues
 Number of orthogonalized atomic orbitals = 445
 Maximum deviation from orthogonality = 2.551E-10

 Scale SEOQF with 1.000000e-02/1.000000e-01/1.000000e-01

 Standard Electronic Orientation quadrupole field applied
 Nucleus-field energy     =    -0.0000000424 hartrees
 ================ Generating on-the-fly Promolecule Density  ================
Attempting to make child job directory: /jobfs/50070108.gadi-pbs/qchem2443346//Frg1/
Attempting to make child job directory: /jobfs/50070108.gadi-pbs/qchem2443346//Frg2/
Attempting to make child job directory: /jobfs/50070108.gadi-pbs/qchem2443346//Frg3/
Attempting to make child job directory: /jobfs/50070108.gadi-pbs/qchem2443346//Frg4/
Attempting to make child job directory: /jobfs/50070108.gadi-pbs/qchem2443346//Frg5/
Attempting to make child job directory: /jobfs/50070108.gadi-pbs/qchem2443346//Frg6/
Creating input file /jobfs/50070108.gadi-pbs/qchem2443346/Frg1.input
using default PutDataFrgm: nothing
calling putenv with: QCSCRATCH=/jobfs/50070108.gadi-pbs/qchem2443346/ 
Spawning Job For Fragment 0
Done Job For Fragment 0
calling putenv with: QCSCRATCH=/jobfs/50070108.gadi-pbs 
calling putenv with: QCTHREADS=8 
Creating input file /jobfs/50070108.gadi-pbs/qchem2443346/Frg2.input
using default PutDataFrgm: nothing
calling putenv with: QCSCRATCH=/jobfs/50070108.gadi-pbs/qchem2443346/ 
Spawning Job For Fragment 1
Done Job For Fragment 1
calling putenv with: QCSCRATCH=/jobfs/50070108.gadi-pbs 
calling putenv with: QCTHREADS=8 
Creating input file /jobfs/50070108.gadi-pbs/qchem2443346/Frg3.input
using default PutDataFrgm: nothing
calling putenv with: QCSCRATCH=/jobfs/50070108.gadi-pbs/qchem2443346/ 
Spawning Job For Fragment 2
Done Job For Fragment 2
calling putenv with: QCSCRATCH=/jobfs/50070108.gadi-pbs 
calling putenv with: QCTHREADS=8 
Creating input file /jobfs/50070108.gadi-pbs/qchem2443346/Frg4.input
using default PutDataFrgm: nothing
calling putenv with: QCSCRATCH=/jobfs/50070108.gadi-pbs/qchem2443346/ 
Spawning Job For Fragment 3
Done Job For Fragment 3
calling putenv with: QCSCRATCH=/jobfs/50070108.gadi-pbs 
calling putenv with: QCTHREADS=8 
Creating input file /jobfs/50070108.gadi-pbs/qchem2443346/Frg5.input
using default PutDataFrgm: nothing
calling putenv with: QCSCRATCH=/jobfs/50070108.gadi-pbs/qchem2443346/ 
Spawning Job For Fragment 4
Done Job For Fragment 4
calling putenv with: QCSCRATCH=/jobfs/50070108.gadi-pbs 
calling putenv with: QCTHREADS=8 
Creating input file /jobfs/50070108.gadi-pbs/qchem2443346/Frg6.input
using default PutDataFrgm: nothing
calling putenv with: QCSCRATCH=/jobfs/50070108.gadi-pbs/qchem2443346/ 
Spawning Job For Fragment 5
Done Job For Fragment 5
calling putenv with: QCSCRATCH=/jobfs/50070108.gadi-pbs 
calling putenv with: QCTHREADS=8 
 Time for running child jobs:  CPU 0.80 s  wall 2.14 s
 ============= Method Specific Promolecule Density Constructed =============
 Guess from superposition of atomic densities
 Warning:  Energy on first SCF cycle will be non-variational
 SAD guess density has 174.000000 electrons

 -----------------------------------------------------------------------
  General SCF calculation program by
  Eric Jon Sundstrom, Paul Horn, Yuezhi Mao, Dmitri Zuev, Alec White,
  David Stuck, Shaama M.S., Shane Yost, Joonho Lee, David Small,
  Daniel Levine, Susi Lehtola, Hugh Burton, Evgeny Epifanovsky,
  Bang C. Huynh
 -----------------------------------------------------------------------
 Exchange:     0.5400 Hartree-Fock + 1.0000 M06-2X
 Correlation:  1.0000 M06-2X
 Using SG-3 standard quadrature grid
 using 8 threads for integral computing
 -------------------------------------------------------
 OpenMP Integral computing Module                
 Release: version 1.0, May 2013, Q-Chem Inc. Pittsburgh 
 -------------------------------------------------------
 A restricted SCF calculation will be
 performed using DIIS
 SCF converges when DIIS error is below 1.0e-05
 ---------------------------------------
  Cycle       Energy         DIIS error
 ---------------------------------------
    1   -1815.5536141581      3.60e-02  
    2   -1808.0179859834      4.31e-03  
    3   -1807.6749237700      6.30e-03  
    4   -1808.4053945603      7.79e-04  
    5   -1808.4167465628      3.38e-04  
    6   -1808.4190466303      9.08e-05  
    7   -1808.4192081026      3.66e-05  
    8   -1808.4192365354      9.65e-06  Convergence criterion met
 ---------------------------------------
 SCF time:   CPU 319.41s  wall 40.00s 
 SCF   energy in the final basis set =    -1808.4192365354
 Total energy in the final basis set =    -1808.4192365354
 Exchange:     0.5400 Hartree-Fock + 1.0000 M06-2X
 Correlation:  1.0000 M06-2X
 Using SG-3 standard quadrature grid
 
 SM12 calculation using Merz-Singh-Kollman charges
 Citation of the SM12 model:
 Marenich, A.V.; Cramer, C.J.; Truhlar, D.G.
 J. Chem. Theory Comput. 2013, 9, 609-612.
 iSolventCode=           1
 Solvent: water                                                           
 
  Building new vdw surfaces
         Merz-Kollman ESP Net Atomic Charges

     Atom                 Charge (a.u.)
  ----------------------------------------
      1 C                     0.304963
      2 C                    -0.345209
      3 Cl                    0.000207
      4 C                     0.157643
      5 H                     0.115971
      6 C                    -0.387432
      7 C                     0.223040
      8 C                    -0.463763
      9 S                     0.907051
     10 O                    -0.460571
     11 O                    -0.476540
     12 N                    -0.744501
     13 H                     0.359159
     14 H                     0.357990
     15 H                     0.192390
     16 C                     0.294169
     17 N                    -0.701654
     18 C                     0.508065
     19 C                     0.758843
     20 C                    -0.275488
     21 O                    -0.581802
     22 C                    -0.346678
     23 C                    -0.135171
     24 C                    -0.183861
     25 C                    -0.123430
     26 O                    -0.685986
     27 H                     0.186265
     28 H                     0.387301
     29 H                     0.188786
     30 H                     0.168907
     31 H                     0.168284
     32 H                     0.177406
     33 H                     0.455644
  ----------------------------------------
  Sum of atomic charges =     0.000000

  Related Dipole Moment =     8.0277 (X -2.4547 Y -7.3331 Z -2.1549)


 Charges (in A.U.) from Merz-Kollman fitting 
 -----------------------------------------------
 Center     Atomic                  MZ       
 Number     Number                  Charge
 -----------------------------------------------
    1          6                    0.304963
    2          6                   -0.345209
    3         17                    0.000207
    4          6                    0.157643
    5          1                    0.115971
    6          6                   -0.387432
    7          6                    0.223040
    8          6                   -0.463763
    9         16                    0.907051
   10          8                   -0.460571
   11          8                   -0.476540
   12          7                   -0.744501
   13          1                    0.359159
   14          1                    0.357990
   15          1                    0.192390
   16          6                    0.294169
   17          7                   -0.701654
   18          6                    0.508065
   19          6                    0.758843
   20          6                   -0.275488
   21          8                   -0.581802
   22          6                   -0.346678
   23          6                   -0.135171
   24          6                   -0.183861
   25          6                   -0.123430
   26          8                   -0.685986
   27          1                    0.186265
   28          1                    0.387301
   29          1                    0.188786
   30          1                    0.168907
   31          1                    0.168284
   32          1                    0.177406
   33          1                    0.455644
 -----------------------------------------------
 A restricted SCF calculation will be
 performed using Roothaan-Hall, DIIS
 SCF converges when DIIS error is below 1.0e-05
 ---------------------------------------
  Cycle       Energy         DIIS error
 ---------------------------------------
         Merz-Kollman ESP Net Atomic Charges

     Atom                 Charge (a.u.)
  ----------------------------------------
      1 C                     0.292238
      2 C                    -0.358978
      3 Cl                   -0.007317
      4 C                     0.177716
      5 H                     0.128136
      6 C                    -0.382530
      7 C                     0.272693
      8 C                    -0.480304
      9 S                     0.960337
     10 O                    -0.523743
     11 O                    -0.530824
     12 N                    -0.744399
     13 H                     0.374819
     14 H                     0.380168
     15 H                     0.188784
     16 C                     0.267647
     17 N                    -0.663569
     18 C                     0.557947
     19 C                     0.789795
     20 C                    -0.296160
     21 O                    -0.682625
     22 C                    -0.364357
     23 C                    -0.141464
     24 C                    -0.209647
     25 C                    -0.152336
     26 O                    -0.705462
     27 H                     0.199206
     28 H                     0.406685
     29 H                     0.206721
     30 H                     0.184163
     31 H                     0.186435
     32 H                     0.189122
     33 H                     0.481104
  ----------------------------------------
  Sum of atomic charges =     0.000000

  Related Dipole Moment =    10.7038 (X -3.2799 Y -9.8023 Z -2.7800)


 Charges (in A.U.) from Merz-Kollman fitting 
 -----------------------------------------------
 Center     Atomic                  MZ       
 Number     Number                  Charge
 -----------------------------------------------
    1          6                    0.292238
    2          6                   -0.358978
    3         17                   -0.007317
    4          6                    0.177716
    5          1                    0.128136
    6          6                   -0.382530
    7          6                    0.272693
    8          6                   -0.480304
    9         16                    0.960337
   10          8                   -0.523743
   11          8                   -0.530824
   12          7                   -0.744399
   13          1                    0.374819
   14          1                    0.380168
   15          1                    0.188784
   16          6                    0.267647
   17          7                   -0.663569
   18          6                    0.557947
   19          6                    0.789795
   20          6                   -0.296160
   21          8                   -0.682625
   22          6                   -0.364357
   23          6                   -0.141464
   24          6                   -0.209647
   25          6                   -0.152336
   26          8                   -0.705462
   27          1                    0.199206
   28          1                    0.406685
   29          1                    0.206721
   30          1                    0.184163
   31          1                    0.186435
   32          1                    0.189122
   33          1                    0.481104
 -----------------------------------------------
    1   -1808.4192389611      3.56e-04  Roothaan Step
 ---------------------------------------
  Cycle       Energy         DIIS error
 ---------------------------------------
         Merz-Kollman ESP Net Atomic Charges

     Atom                 Charge (a.u.)
  ----------------------------------------
      1 C                     0.325478
      2 C                    -0.367939
      3 Cl                   -0.002243
      4 C                     0.184337
      5 H                     0.133215
      6 C                    -0.414481
      7 C                     0.261935
      8 C                    -0.482452
      9 S                     0.914616
     10 O                    -0.491272
     11 O                    -0.511370
     12 N                    -0.749863
     13 H                     0.372651
     14 H                     0.376237
     15 H                     0.196344
     16 C                     0.177953
     17 N                    -0.683815
     18 C                     0.605760
     19 C                     0.760234
     20 C                    -0.289384
     21 O                    -0.635046
     22 C                    -0.394227
     23 C                    -0.138888
     24 C                    -0.212218
     25 C                    -0.134596
     26 O                    -0.686707
     27 H                     0.213008
     28 H                     0.413433
     29 H                     0.215414
     30 H                     0.186030
     31 H                     0.186406
     32 H                     0.184879
     33 H                     0.486571
  ----------------------------------------
  Sum of atomic charges =     0.000000

  Related Dipole Moment =     9.9531 (X -2.9937 Y -9.1915 Z -2.3703)


 Charges (in A.U.) from Merz-Kollman fitting 
 -----------------------------------------------
 Center     Atomic                  MZ       
 Number     Number                  Charge
 -----------------------------------------------
    1          6                    0.325478
    2          6                   -0.367939
    3         17                   -0.002243
    4          6                    0.184337
    5          1                    0.133215
    6          6                   -0.414481
    7          6                    0.261935
    8          6                   -0.482452
    9         16                    0.914616
   10          8                   -0.491272
   11          8                   -0.511370
   12          7                   -0.749863
   13          1                    0.372651
   14          1                    0.376237
   15          1                    0.196344
   16          6                    0.177953
   17          7                   -0.683815
   18          6                    0.605760
   19          6                    0.760234
   20          6                   -0.289384
   21          8                   -0.635046
   22          6                   -0.394227
   23          6                   -0.138888
   24          6                   -0.212218
   25          6                   -0.134596
   26          8                   -0.686707
   27          1                    0.213008
   28          1                    0.413433
   29          1                    0.215414
   30          1                    0.186030
   31          1                    0.186406
   32          1                    0.184879
   33          1                    0.486571
 -----------------------------------------------
    1   -1808.4083719172      3.10e-04  
         Merz-Kollman ESP Net Atomic Charges

     Atom                 Charge (a.u.)
  ----------------------------------------
      1 C                     0.311444
      2 C                    -0.370544
      3 Cl                   -0.003617
      4 C                     0.181225
      5 H                     0.132715
      6 C                    -0.401621
      7 C                     0.272731
      8 C                    -0.483029
      9 S                     0.952068
     10 O                    -0.515516
     11 O                    -0.528622
     12 N                    -0.745522
     13 H                     0.372918
     14 H                     0.377361
     15 H                     0.194245
     16 C                     0.213232
     17 N                    -0.664155
     18 C                     0.602344
     19 C                     0.784634
     20 C                    -0.292011
     21 O                    -0.678762
     22 C                    -0.388339
     23 C                    -0.139676
     24 C                    -0.217943
     25 C                    -0.144994
     26 O                    -0.698545
     27 H                     0.207933
     28 H                     0.409058
     29 H                     0.213237
     30 H                     0.186224
     31 H                     0.188218
     32 H                     0.187330
     33 H                     0.485979
  ----------------------------------------
  Sum of atomic charges =     0.000000

  Related Dipole Moment =    10.5489 (X -3.2160 Y -9.7036 Z -2.6029)


 Charges (in A.U.) from Merz-Kollman fitting 
 -----------------------------------------------
 Center     Atomic                  MZ       
 Number     Number                  Charge
 -----------------------------------------------
    1          6                    0.311444
    2          6                   -0.370544
    3         17                   -0.003617
    4          6                    0.181225
    5          1                    0.132715
    6          6                   -0.401621
    7          6                    0.272731
    8          6                   -0.483029
    9         16                    0.952068
   10          8                   -0.515516
   11          8                   -0.528622
   12          7                   -0.745522
   13          1                    0.372918
   14          1                    0.377361
   15          1                    0.194245
   16          6                    0.213232
   17          7                   -0.664155
   18          6                    0.602344
   19          6                    0.784634
   20          6                   -0.292011
   21          8                   -0.678762
   22          6                   -0.388339
   23          6                   -0.139676
   24          6                   -0.217943
   25          6                   -0.144994
   26          8                   -0.698545
   27          1                    0.207933
   28          1                    0.409058
   29          1                    0.213237
   30          1                    0.186224
   31          1                    0.188218
   32          1                    0.187330
   33          1                    0.485979
 -----------------------------------------------
    2   -1808.4111070779      4.05e-04  
         Merz-Kollman ESP Net Atomic Charges

     Atom                 Charge (a.u.)
  ----------------------------------------
      1 C                     0.307928
      2 C                    -0.367411
      3 Cl                   -0.004736
      4 C                     0.182606
      5 H                     0.132769
      6 C                    -0.397592
      7 C                     0.272620
      8 C                    -0.483111
      9 S                     0.949171
     10 O                    -0.515437
     11 O                    -0.528822
     12 N                    -0.745383
     13 H                     0.373529
     14 H                     0.378256
     15 H                     0.193889
     16 C                     0.213340
     17 N                    -0.665721
     18 C                     0.595635
     19 C                     0.779216
     20 C                    -0.293459
     21 O                    -0.675341
     22 C                    -0.385097
     23 C                    -0.138980
     24 C                    -0.216971
     25 C                    -0.145003
     26 O                    -0.697167
     27 H                     0.207547
     28 H                     0.410795
     29 H                     0.213561
     30 H                     0.186619
     31 H                     0.188511
     32 H                     0.187828
     33 H                     0.486411
  ----------------------------------------
  Sum of atomic charges =     0.000000

  Related Dipole Moment =    10.6418 (X -3.2235 Y -9.8028 Z -2.6004)


 Charges (in A.U.) from Merz-Kollman fitting 
 -----------------------------------------------
 Center     Atomic                  MZ       
 Number     Number                  Charge
 -----------------------------------------------
    1          6                    0.307928
    2          6                   -0.367411
    3         17                   -0.004736
    4          6                    0.182606
    5          1                    0.132769
    6          6                   -0.397592
    7          6                    0.272620
    8          6                   -0.483111
    9         16                    0.949171
   10          8                   -0.515437
   11          8                   -0.528822
   12          7                   -0.745383
   13          1                    0.373529
   14          1                    0.378256
   15          1                    0.193889
   16          6                    0.213340
   17          7                   -0.665721
   18          6                    0.595635
   19          6                    0.779216
   20          6                   -0.293459
   21          8                   -0.675341
   22          6                   -0.385097
   23          6                   -0.138980
   24          6                   -0.216971
   25          6                   -0.145003
   26          8                   -0.697167
   27          1                    0.207547
   28          1                    0.410795
   29          1                    0.213561
   30          1                    0.186619
   31          1                    0.188511
   32          1                    0.187828
   33          1                    0.486411
 -----------------------------------------------
    3   -1808.4102612088      4.13e-05  
         Merz-Kollman ESP Net Atomic Charges

     Atom                 Charge (a.u.)
  ----------------------------------------
      1 C                     0.310049
      2 C                    -0.368908
      3 Cl                   -0.004210
      4 C                     0.182011
      5 H                     0.133454
      6 C                    -0.399892
      7 C                     0.272490
      8 C                    -0.482503
      9 S                     0.948265
     10 O                    -0.514899
     11 O                    -0.528392
     12 N                    -0.745889
     13 H                     0.373523
     14 H                     0.378166
     15 H                     0.194359
     16 C                     0.210135
     17 N                    -0.663995
     18 C                     0.599827
     19 C                     0.780365
     20 C                    -0.291371
     21 O                    -0.678164
     22 C                    -0.388123
     23 C                    -0.139278
     24 C                    -0.218469
     25 C                    -0.144844
     26 O                    -0.697177
     27 H                     0.208445
     28 H                     0.410516
     29 H                     0.214198
     30 H                     0.186951
     31 H                     0.188798
     32 H                     0.187717
     33 H                     0.486845
  ----------------------------------------
  Sum of atomic charges =     0.000000

  Related Dipole Moment =    10.6384 (X -3.2291 Y -9.7982 Z -2.5967)


 Charges (in A.U.) from Merz-Kollman fitting 
 -----------------------------------------------
 Center     Atomic                  MZ       
 Number     Number                  Charge
 -----------------------------------------------
    1          6                    0.310049
    2          6                   -0.368908
    3         17                   -0.004210
    4          6                    0.182011
    5          1                    0.133454
    6          6                   -0.399892
    7          6                    0.272490
    8          6                   -0.482503
    9         16                    0.948265
   10          8                   -0.514899
   11          8                   -0.528392
   12          7                   -0.745889
   13          1                    0.373523
   14          1                    0.378166
   15          1                    0.194359
   16          6                    0.210135
   17          7                   -0.663995
   18          6                    0.599827
   19          6                    0.780365
   20          6                   -0.291371
   21          8                   -0.678164
   22          6                   -0.388123
   23          6                   -0.139278
   24          6                   -0.218469
   25          6                   -0.144844
   26          8                   -0.697177
   27          1                    0.208445
   28          1                    0.410516
   29          1                    0.214198
   30          1                    0.186951
   31          1                    0.188798
   32          1                    0.187717
   33          1                    0.486845
 -----------------------------------------------
    4   -1808.4099890846      2.05e-05  
    5   -1808.4098824336      5.51e-06  Convergence criterion met
 ---------------------------------------
 SCF time:   CPU 279.63s  wall 41.00s 
(0)  E-EN(g) gas-phase elect-nuc energy                -1808.419236535 a.u.
(1)  E-EN(liq) elect-nuc energy of solute              -1808.409882434 a.u.
(2)  G-P(liq) polarization free energy of solvation           -34.3693 kcal/mol
(3)  G-ENP(liq) elect-nuc-pol free energy of system    -1808.464653410 a.u.
(4)  G-CDS(liq) cavity-dispersion-solvent structure 
     free energy                                               -0.0043 kcal/mol
(5)  G-P-CDS(liq) = G-P(liq) + G-CDS(liq) = (2) + (4)         -34.3736 kcal/mol
(6)  G-S(liq) free energy of system = (1) + (5)        -1808.464660220 a.u.
(7)  DeltaE-EN(liq) elect-nuc reorganization
     energy of solute molecule (7) = (1) - (0)                  5.8698 kcal/mol
(8)  DeltaG-ENP(liq) elect-nuc-pol free energy
     of solvation (8) = (3) - (0)                             -28.4995 kcal/mol
(9)  DeltaG-S(liq) free energy of  solvation
     (9) = (6) - (0)                                          -28.5038 kcal/mol
 SCF   energy in the final basis set =    -1808.4646602196
 Total energy in the final basis set =    -1808.4646602196
 
 --------------------------------------------------------------
 
                    Orbital Energies (a.u.)
 --------------------------------------------------------------
 
 Alpha MOs
 -- Occupied --
******** -90.1828 -19.6726 -19.6626 -19.6605 -19.6368 -14.8106 -14.8036
-10.6799 -10.6788 -10.6541 -10.6219 -10.5974 -10.5964 -10.5913 -10.5896
-10.5836 -10.5774 -10.5766 -10.5760 -10.5752 -10.5725  -9.8446  -8.4961
 -7.5689  -7.5622  -7.5619  -6.4183  -6.4179  -6.4172  -1.2644  -1.1951
 -1.1744  -1.1496  -1.0685  -1.0427  -1.0286  -0.9819  -0.9719  -0.9018
 -0.8869  -0.8782  -0.8640  -0.7960  -0.7815  -0.7500  -0.7253  -0.7110
 -0.6909  -0.6762  -0.6551  -0.6289  -0.6240  -0.6100  -0.5942  -0.5837
 -0.5803  -0.5740  -0.5711  -0.5409  -0.5385  -0.5324  -0.5245  -0.5185
 -0.5148  -0.5050  -0.4993  -0.4801  -0.4595  -0.4555  -0.4526  -0.4423
 -0.4390  -0.4293  -0.4251  -0.4164  -0.4127  -0.4096  -0.4007  -0.3962
 -0.3815  -0.3559  -0.3495  -0.3444  -0.3354  -0.3264  -0.3133
 -- Virtual --
 -0.0348  -0.0315  -0.0142  -0.0085   0.0041   0.0109   0.0161   0.0216
  0.0266   0.0329   0.0380   0.0418   0.0466   0.0491   0.0536   0.0605
  0.0651   0.0705   0.0723   0.0761   0.0772   0.0810   0.0855   0.0886
  0.0924   0.0978   0.1019   0.1054   0.1090   0.1143   0.1187   0.1204
  0.1253   0.1284   0.1328   0.1373   0.1397   0.1439   0.1470   0.1502
  0.1548   0.1596   0.1605   0.1636   0.1727   0.1764   0.1781   0.1798
  0.1824   0.1889   0.1897   0.1925   0.1972   0.1998   0.2020   0.2058
  0.2075   0.2135   0.2155   0.2176   0.2181   0.2247   0.2277   0.2302
  0.2336   0.2379   0.2400   0.2457   0.2481   0.2528   0.2555   0.2583
  0.2597   0.2632   0.2658   0.2682   0.2766   0.2802   0.2823   0.2865
  0.2880   0.2927   0.2964   0.2990   0.3026   0.3076   0.3083   0.3139
  0.3179   0.3219   0.3256   0.3294   0.3352   0.3376   0.3413   0.3431
  0.3489   0.3518   0.3573   0.3604   0.3656   0.3722   0.3804   0.3847
  0.3878   0.3931   0.3938   0.4079   0.4192   0.4208   0.4263   0.4339
  0.4427   0.4521   0.4588   0.4607   0.4647   0.4767   0.4798   0.4887
  0.5091   0.5160   0.5507   0.5630   0.5798   0.5892   0.6055   0.6223
  0.6501   0.6556   0.6619   0.6659   0.6860   0.6988   0.7071   0.7111
  0.7213   0.7305   0.7371   0.7496   0.7535   0.7615   0.7656   0.7686
  0.7779   0.7850   0.7896   0.7962   0.8013   0.8131   0.8264   0.8306
  0.8445   0.8505   0.8573   0.8688   0.8741   0.8823   0.8873   0.9003
  0.9189   0.9243   0.9304   0.9343   0.9469   0.9505   0.9595   0.9717
  0.9777   0.9913   0.9998   1.0050   1.0184   1.0262   1.0344   1.0454
  1.0495   1.0615   1.0698   1.0722   1.0799   1.0857   1.0988   1.1095
  1.1253   1.1300   1.1445   1.1456   1.1553   1.1634   1.1667   1.1775
  1.1822   1.1844   1.1919   1.2036   1.2096   1.2220   1.2281   1.2355
  1.2471   1.2600   1.2766   1.2822   1.2943   1.3081   1.3159   1.3343
  1.3375   1.3470   1.3595   1.3646   1.3718   1.3902   1.3933   1.3999
  1.4037   1.4139   1.4197   1.4363   1.4426   1.4488   1.4582   1.4609
  1.4699   1.4803   1.4854   1.4928   1.5057   1.5126   1.5189   1.5272
  1.5386   1.5434   1.5524   1.5638   1.5740   1.5934   1.5985   1.6332
  1.6435   1.6934   1.7018   1.7164   1.7530   1.7734   1.7877   1.7919
  1.8022   1.8124   1.8274   1.8408   1.8480   1.8530   1.8602   1.8762
  1.8850   1.8873   1.8973   1.9074   1.9164   1.9241   1.9496   1.9625
  1.9754   1.9968   2.0016   2.0115   2.0185   2.0292   2.0492   2.0540
  2.0563   2.0887   2.1012   2.1278   2.1423   2.1501   2.1539   2.1648
  2.1706   2.1817   2.1973   2.2072   2.2105   2.2201   2.2308   2.2430
  2.2491   2.2729   2.2940   2.2951   2.2994   2.3128   2.3337   2.3426
  2.3465   2.3656   2.3975   2.4307   2.4499   2.4620   2.4953   2.5107
  2.5310   2.5649   2.6051   2.6191   2.6301   2.6462   2.6523   2.6703
  2.6906   2.6953   2.7399   2.7491   2.7516   2.7696   2.7797   2.8031
  2.8210   2.8673   2.8801   2.8893   2.9112   2.9294   2.9581   3.0074
  3.0205   3.0918   3.1270   3.1399   3.2173   3.2984   3.3472   3.4497
  3.9063   4.0605   4.2054   4.2439   4.2679   4.2800   4.3041   4.3208
  4.3278   4.3602   4.3952   4.4073   4.4441   4.4550   4.4763   4.5160
  4.5329   4.5798   4.6965   4.7753   4.8202   4.9192
 --------------------------------------------------------------
 
          Ground-State Mulliken Net Atomic Charges

     Atom                 Charge (a.u.)
  ----------------------------------------
      1 C                    -3.190171
      2 C                     1.028584
      3 Cl                    0.166950
      4 C                     0.425775
      5 H                     0.294642
      6 C                     0.775982
      7 C                    -0.080232
      8 C                    -0.316920
      9 S                     1.032860
     10 O                    -0.643615
     11 O                    -0.769030
     12 N                    -0.847429
     13 H                     0.493476
     14 H                     0.515010
     15 H                     0.302244
     16 C                     3.233313
     17 N                    -0.515578
     18 C                    -0.014338
     19 C                    -0.803012
     20 C                    -1.400066
     21 O                    -0.821288
     22 C                     0.673808
     23 C                    -0.071389
     24 C                    -0.175448
     25 C                    -1.206990
     26 O                    -0.598971
     27 H                     0.307303
     28 H                     0.528681
     29 H                     0.291986
     30 H                     0.272404
     31 H                     0.267880
     32 H                     0.269274
     33 H                     0.574303
  ----------------------------------------
  Sum of atomic charges =     0.000000

         Merz-Kollman ESP Net Atomic Charges

     Atom                 Charge (a.u.)
  ----------------------------------------
      1 C                     0.309865
      2 C                    -0.368940
      3 Cl                   -0.004188
      4 C                     0.181970
      5 H                     0.133475
      6 C                    -0.399612
      7 C                     0.272613
      8 C                    -0.482857
      9 S                     0.949698
     10 O                    -0.515388
     11 O                    -0.528951
     12 N                    -0.745676
     13 H                     0.373384
     14 H                     0.377983
     15 H                     0.194465
     16 C                     0.209219
     17 N                    -0.663769
     18 C                     0.600518
     19 C                     0.780270
     20 C                    -0.291789
     21 O                    -0.678192
     22 C                    -0.388091
     23 C                    -0.138977
     24 C                    -0.218446
     25 C                    -0.144796
     26 O                    -0.697039
     27 H                     0.208432
     28 H                     0.410486
     29 H                     0.214161
     30 H                     0.186869
     31 H                     0.188736
     32 H                     0.187703
     33 H                     0.486861
  ----------------------------------------
  Sum of atomic charges =     0.000000

  Related Dipole Moment =    10.6429 (X -3.2300 Y -9.8038 Z -2.5931)

 -----------------------------------------------------------------
                    Cartesian Multipole Moments
 -----------------------------------------------------------------
    Charge (ESU x 10^10)
                -0.0000
    Dipole Moment (Debye)
         X      -3.2507      Y      -9.7848      Z      -2.5504
       Tot      10.6214
    Quadrupole Moments (Debye-Ang)
        XX    -125.3159     XY      -2.5093     YY    -178.2065
        XZ      35.6571     YZ      13.8559     ZZ    -140.8879
    Octopole Moments (Debye-Ang^2)
       XXX      24.5805    XXY    -166.7681    XYY      15.0960
       YYY    -730.9139    XXZ     259.8559    XYZ      77.3991
       YYZ     331.4479    XZZ     -99.8679    YZZ    -252.1855
       ZZZ     758.5965
    Hexadecapole Moments (Debye-Ang^3)
      XXXX   -5869.0975   XXXY     191.7333   XXYY   -1760.7425
      XYYY     333.8361   YYYY   -4247.9953   XXXZ    1006.4467
      XXYZ     257.6600   XYYZ     520.1635   YYYZ    1376.3810
      XXZZ   -2020.8890   XYZZ    -205.4365   YYZZ   -1667.7492
      XZZZ    1165.6085   YZZZ    1263.9505   ZZZZ   -4363.1827
 -----------------------------------------------------------------
 Total job time:  84.25s(wall), 605.87s(cpu) 
 Sat Jul  2 12:49:21 2022

        *************************************************************
        *                                                           *
        *  Thank you very much for using Q-Chem.  Have a nice day.  *
        *                                                           *
        *************************************************************


