                  Welcome to Q-Chem
     A Quantum Leap Into The Future Of Chemistry


 Q-Chem 5.4 (devel), Q-Chem, Inc., Pleasanton, CA (2021)

 E. Epifanovsky,  A. T. B. Gilbert,  Xintian Feng,  Joonho Lee,  Yuezhi Mao,  
 N. Mardirossian,  P. Pokhilko,  A. White,  M. Wormit,  M. P. Coons,  
 A. L. Dempwolff,  Zhengting Gan,  D. Hait,  P. R. Horn,  L. D. Jacobson,  
 I. Kaliman,  J. Kussmann,  A. W. Lange,  Ka Un Lao,  D. S. Levine,  Jie Liu,  
 S. C. McKenzie,  A. F. Morrison,  K. Nanda,  F. Plasser,  D. R. Rehn,  
 M. L. Vidal,  Zhi-Qiang You,  Ying Zhu,  B. Alam,  B. Albrecht,  
 A. Aldossary,  E. Alguire,  J. H. Andersen,  D. Barton,  K. Begam,  A. Behn,  
 Y. A. Bernard,  E. J. Berquist,  H. Burton,  A. Carreras,  K. Carter-Fenk,  
 R. Chakraborty,  A. D. Chien,  K. D. Closser,  V. Cofer-Shabica,  
 S. Dasgupta,  Jia Deng,  M. de Wergifosse,  M. Diedenhofen,  Hainam Do,  
 S. Ehlert,  Po-Tung Fang,  S. Fatehi,  Qingguo Feng,  T. Friedhoff,  
 J. Gayvert,  Qinghui Ge,  G. Gidofalvi,  M. Goldey,  J. Gomes,  
 C. Gonzalez-Espinoza,  S. Gulania,  A. Gunina,  M. W. D. Hanson-Heine,  
 P. H. P. Harbach,  A. W. Hauser,  M. F. Herbst,  M. Hernandez Vera,  
 M. Hodecker,  Z. C. Holden,  S. Houck,  Xunkun Huang,  Kerwin Hui,  
 B. C. Huynh,  M. Ivanov,  Hyunjun Ji,  Hanjie Jiang,  B. Kaduk,  S. Kaehler,  
 K. Khistyaev,  Jaehoon Kim,  P. Klunzinger,  Z. Koczor-Benda,  
 Joong Hoon Koh,  D. Kosenkov,  L. Koulias,  T. Kowalczyk,  C. M. Krauter,  
 K. Kue,  A. Kunitsa,  T. Kus,  A. Landau,  K. V. Lawler,  D. Lefrancois,  
 S. Lehtola,  Rain Li,  Yi-Pei Li,  Jiashu Liang,  M. Liebenthal,  
 Hung-Hsuan Lin,  You-Sheng Lin,  Fenglai Liu,  Kuan-Yu Liu,  
 M. Loipersberger,  A. Luenser,  A. Manjanath,  P. Manohar,  E. Mansoor,  
 S. F. Manzer,  Shan-Ping Mao,  A. V. Marenich,  T. Markovich,  S. Mason,  
 S. A. Maurer,  P. F. McLaughlin,  M. F. S. J. Menger,  J.-M. Mewes,  
 S. A. Mewes,  P. Morgante,  J. W. Mullinax,  K. J. Oosterbaan,  G. Paran,  
 Alexander C. Paul,  Suranjan K. Paul,  F. Pavosevic,  Zheng Pei,  S. Prager,  
 E. I. Proynov,  E. Ramos,  B. Rana,  A. E. Rask,  A. Rettig,  R. M. Richard,  
 F. Rob,  E. Rossomme,  T. Scheele,  M. Scheurer,  M. Schneider,  
 N. Sergueev,  S. M. Sharada,  W. Skomorowski,  D. W. Small,  C. J. Stein,  
 Yu-Chuan Su,  E. J. Sundstrom,  Zhen Tao,  J. Thirman,  T. Tsuchimochi,  
 N. M. Tubman,  S. P. Veccham,  O. Vydrov,  J. Wenzel,  J. Witte,  A. Yamada,  
 Kun Yao,  S. Yeganeh,  S. R. Yost,  A. Zech,  Igor Ying Zhang,  Xing Zhang,  
 Yu Zhang,  D. Zuev,  A. Aspuru-Guzik,  A. T. Bell,  N. A. Besley,  
 K. B. Bravaya,  B. R. Brooks,  D. Casanova,  Jeng-Da Chai,  S. Coriani,  
 C. J. Cramer,  A. E. DePrince, III,  R. A. DiStasio Jr.,  A. Dreuw,  
 B. D. Dunietz,  T. R. Furlani,  W. A. Goddard III,  S. Grimme,  
 S. Hammes-Schiffer,  T. Head-Gordon,  W. J. Hehre,  Chao-Ping Hsu,  
 T.-C. Jagau,  Yousung Jung,  A. Klamt,  Jing Kong,  D. S. Lambrecht,  
 WanZhen Liang,  N. J. Mayhall,  C. W. McCurdy,  J. B. Neaton,  
 C. Ochsenfeld,  J. A. Parkhill,  R. Peverati,  V. A. Rassolov,  Yihan Shao,  
 L. V. Slipchenko,  T. Stauch,  R. P. Steele,  J. E. Subotnik,  
 A. J. W. Thom,  A. Tkatchenko,  D. G. Truhlar,  T. Van Voorhis,  
 T. A. Wesolowski,  K. B. Whaley,  H. L. Woodcock III,  P. M. Zimmerman,  
 S. Faraji,  P. M. W. Gill,  M. Head-Gordon,  J. M. Herbert,  A. I. Krylov

 Additional authors for Version 5.4.1: 
 S. Kotaru,  Shaozhi Li,  Xiangyuan Li,  F. Matz,  A. Molle,  Haisheng Ren,  
 Yingli Su,  Hung-Yi Tsai,  C. Utku,  Fang Wang

 Contributors to earlier versions of Q-Chem not listed above: 
 R. D. Adamson,  B. Austin,  R. Baer,  J. Baker,  G. J. O. Beran,  
 K. Brandhorst,  S. T. Brown,  E. F. C. Byrd,  A. K. Chakraborty,  
 G. K. L. Chan,  Chun-Min Chang,  Yunqing Chen,  C.-L. Cheng,  
 Siu Hung Chien,  D. M. Chipman,  D. L. Crittenden,  H. Dachsel,  
 R. J. Doerksen,  A. D. Dutoi,  R. G. Edgar,  J. Fosso-Tande,  
 L. Fusti-Molnar,  D. Ghosh,  A. Ghysels,  A. Golubeva-Zadorozhnaya,  
 J. Gonthier,  M. S. Gordon,  S. R. Gwaltney,  G. Hawkins,  J. E. Herr,  
 A. Heyden,  S. Hirata,  E. G. Hohenstein,  G. Kedziora,  F. J. Keil,  
 C. Kelley,  Jihan Kim,  R. A. King,  R. Z. Khaliullin,  P. P. Korambath,  
 W. Kurlancheek,  A. Laurent,  A. M. Lee,  M. S. Lee,  S. V. Levchenko,  
 Ching Yeh Lin,  D. Liotard,  E. Livshits,  R. C. Lochan,  I. Lotan,  
 L. A. Martinez-Martinez,  P. E. Maslen,  N. Nair,  D. P. O'Neill,  
 D. Neuhauser,  E. Neuscamman,  C. M. Oana,  R. Olivares-Amaya,  R. Olson,  
 T. M. Perrine,  B. Peters,  P. A. Pieniazek,  A. Prociuk,  Y. M. Rhee,  
 J. Ritchie,  M. A. Rohrdanz,  E. Rosta,  N. J. Russ,  H. F. Schaefer III,  
 M. W. Schmidt,  N. E. Schultz,  S. Sharma,  N. Shenvi,  C. D. Sherrill,  
 A. C. Simmonett,  A. Sodt,  T. Stein,  D. Stuck,  K. S. Thanthiriwatte,  
 V. Vanovschi,  L. Vogt,  Tao Wang,  A. Warshel,  M. A. Watson,  
 C. F. Williams,  Q. Wu,  X. Xu,  Jun Yang,  W. Zhang,  Yan Zhao

 Please cite Q-Chem as follows:
 Y. Shao et al., Mol. Phys. 113, 184-215 (2015)
 DOI: 10.1080/00268976.2014.952696

 Q-Chem 5.4.1 for Intel X86 EM64T Linux

 Parts of Q-Chem use Armadillo 9.800.1 (Horizon Scraper).
 http://arma.sourceforge.net/

 Q-Chem begins on Thu May 26 10:29:08 2022  

 Host: gadi-cpu-clx-2119.gadi.nci.org.au
0

     Scratch files written to /jobfs/41312708.gadi-pbs/qchem3817476//
 Processing $rem in /apps/qchem/5.4.1/config/preferences:
 Processing $rem in /home/561/yj5695/.qchemrc:
 Symmetry turned off for PCM/SM12/SMD calculation
 Method-specific promolecule density matrix will be built for SM12 calculation

 Checking the input file for inconsistencies... 	...done.

--------------------------------------------------------------
User input:
--------------------------------------------------------------
$molecule
0  1
C -1.2979085741  0.6428003054 -0.9241721702
C -2.4688928206  0.9570102516 -1.6362710463
Cl -4.0373016193  1.1578507557 -0.9167928596
C -2.4483261346  1.1187238397 -3.020281718
H -3.364545368  1.3609114793 -3.5475704136
C -1.2552242164  0.9635083501 -3.7059570948
Cl -1.2336819531  1.1706887749 -5.4275640117
C -0.0774629384  0.6407063167 -3.0469116892
H  0.8535555032  0.5124338973 -3.5880603299
C -0.1147260549  0.480872679 -1.6695628169
Cl  1.4064814507  0.0725695951 -0.9265358941
S -1.2296869341  0.4242061009  0.8740823923
O -2.5311372441  0.7410642736  1.4380561363
O -0.6493444897 -0.8904533285  1.1175940679
N -0.1978809773  1.5395597966  1.4906988879
H -0.5182964814  2.498697309  1.3453230997
H  0.7769308519  1.4143786037  1.2192474601
$end

$rem
jobtype sp
exchange M062X
basis 6-31+G*
SMX_GAS_PHASE = TRUE
solvent_method sm12
$end

$smx
solvent water
charges mk
$end
--------------------------------------------------------------
 ----------------------------------------------------------------
             Standard Nuclear Orientation (Angstroms)
    I     Atom           X                Y                Z
 ----------------------------------------------------------------
    1      C      -1.2979085741     0.6428003054    -0.9241721702
    2      C      -2.4688928206     0.9570102516    -1.6362710463
    3      Cl     -4.0373016193     1.1578507557    -0.9167928596
    4      C      -2.4483261346     1.1187238397    -3.0202817180
    5      H      -3.3645453680     1.3609114793    -3.5475704136
    6      C      -1.2552242164     0.9635083501    -3.7059570948
    7      Cl     -1.2336819531     1.1706887749    -5.4275640117
    8      C      -0.0774629384     0.6407063167    -3.0469116892
    9      H       0.8535555032     0.5124338973    -3.5880603299
   10      C      -0.1147260549     0.4808726790    -1.6695628169
   11      Cl      1.4064814507     0.0725695951    -0.9265358941
   12      S      -1.2296869341     0.4242061009     0.8740823923
   13      O      -2.5311372441     0.7410642736     1.4380561363
   14      O      -0.6493444897    -0.8904533285     1.1175940679
   15      N      -0.1978809773     1.5395597966     1.4906988879
   16      H      -0.5182964814     2.4986973090     1.3453230997
   17      H       0.7769308519     1.4143786037     1.2192474601
 ----------------------------------------------------------------
 Nuclear Repulsion Energy =        1281.52926077 hartrees
 There are       65 alpha and       65 beta electrons
 Requested basis set is 6-31+G(d)
 There are 77 shells and 271 basis functions

 Total QAlloc Memory Limit   2000 MB
 Mega-Array Size       188 MB
 MEM_STATIC part       192 MB
 A cutoff of  1.0D-08 yielded   2375 shell pairs
 There are     30918 function pairs
 Smallest overlap matrix eigenvalue = 7.96E-07

 Q-Chem warning in module stvman/mkSTV.C, line 323:

 Overlap eigenvalue is smaller than square root of threshold
 Use THRESH >= 12 to get rid of this warning

 Linear dependence detected in AO basis
 Tighter screening thresholds may be required for diffuse basis sets
 Use S2THRESH > 14 and THRESH = 14 in case of SCF convergence issues
 Number of orthogonalized atomic orbitals = 270
 Maximum deviation from orthogonality = 2.432E-10

 Scale SEOQF with 1.000000e-01/1.000000e-01/1.000000e-02

 Standard Electronic Orientation quadrupole field applied
 Nucleus-field energy     =     0.0000000175 hartrees
 ================ Generating on-the-fly Promolecule Density  ================
Attempting to make child job directory: /jobfs/41312708.gadi-pbs/qchem3817476//Frg1/
Attempting to make child job directory: /jobfs/41312708.gadi-pbs/qchem3817476//Frg2/
Attempting to make child job directory: /jobfs/41312708.gadi-pbs/qchem3817476//Frg3/
Attempting to make child job directory: /jobfs/41312708.gadi-pbs/qchem3817476//Frg4/
Attempting to make child job directory: /jobfs/41312708.gadi-pbs/qchem3817476//Frg5/
Attempting to make child job directory: /jobfs/41312708.gadi-pbs/qchem3817476//Frg6/
Creating input file /jobfs/41312708.gadi-pbs/qchem3817476/Frg1.input
using default PutDataFrgm: nothing
calling putenv with: QCSCRATCH=/jobfs/41312708.gadi-pbs/qchem3817476/ 
Spawning Job For Fragment 0
Done Job For Fragment 0
calling putenv with: QCSCRATCH=/jobfs/41312708.gadi-pbs 
calling putenv with: QCTHREADS=16 
Creating input file /jobfs/41312708.gadi-pbs/qchem3817476/Frg2.input
using default PutDataFrgm: nothing
calling putenv with: QCSCRATCH=/jobfs/41312708.gadi-pbs/qchem3817476/ 
Spawning Job For Fragment 1
Done Job For Fragment 1
calling putenv with: QCSCRATCH=/jobfs/41312708.gadi-pbs 
calling putenv with: QCTHREADS=16 
Creating input file /jobfs/41312708.gadi-pbs/qchem3817476/Frg3.input
using default PutDataFrgm: nothing
calling putenv with: QCSCRATCH=/jobfs/41312708.gadi-pbs/qchem3817476/ 
Spawning Job For Fragment 2
Done Job For Fragment 2
calling putenv with: QCSCRATCH=/jobfs/41312708.gadi-pbs 
calling putenv with: QCTHREADS=16 
Creating input file /jobfs/41312708.gadi-pbs/qchem3817476/Frg4.input
using default PutDataFrgm: nothing
calling putenv with: QCSCRATCH=/jobfs/41312708.gadi-pbs/qchem3817476/ 
Spawning Job For Fragment 3
Done Job For Fragment 3
calling putenv with: QCSCRATCH=/jobfs/41312708.gadi-pbs 
calling putenv with: QCTHREADS=16 
Creating input file /jobfs/41312708.gadi-pbs/qchem3817476/Frg5.input
using default PutDataFrgm: nothing
calling putenv with: QCSCRATCH=/jobfs/41312708.gadi-pbs/qchem3817476/ 
Spawning Job For Fragment 4
Done Job For Fragment 4
calling putenv with: QCSCRATCH=/jobfs/41312708.gadi-pbs 
calling putenv with: QCTHREADS=16 
Creating input file /jobfs/41312708.gadi-pbs/qchem3817476/Frg6.input
using default PutDataFrgm: nothing
calling putenv with: QCSCRATCH=/jobfs/41312708.gadi-pbs/qchem3817476/ 
Spawning Job For Fragment 5
Done Job For Fragment 5
calling putenv with: QCSCRATCH=/jobfs/41312708.gadi-pbs 
calling putenv with: QCTHREADS=16 
 Time for running child jobs:  CPU 2.19 s  wall 2.69 s
 ============= Method Specific Promolecule Density Constructed =============
 Guess from superposition of atomic densities
 Warning:  Energy on first SCF cycle will be non-variational
 SAD guess density has 130.000000 electrons

 -----------------------------------------------------------------------
  General SCF calculation program by
  Eric Jon Sundstrom, Paul Horn, Yuezhi Mao, Dmitri Zuev, Alec White,
  David Stuck, Shaama M.S., Shane Yost, Joonho Lee, David Small,
  Daniel Levine, Susi Lehtola, Hugh Burton, Evgeny Epifanovsky,
  Bang C. Huynh
 -----------------------------------------------------------------------
 Exchange:     0.5400 Hartree-Fock + 1.0000 M06-2X
 Correlation:  1.0000 M06-2X
 Using SG-3 standard quadrature grid
 using 16 threads for integral computing
 -------------------------------------------------------
 OpenMP Integral computing Module                
 Release: version 1.0, May 2013, Q-Chem Inc. Pittsburgh 
 -------------------------------------------------------
 A restricted SCF calculation will be
 performed using DIIS
 SCF converges when DIIS error is below 1.0e-05
 ---------------------------------------
  Cycle       Energy         DIIS error
 ---------------------------------------
    1   -2218.5624173125      4.42e-02  
    2   -2214.3677812154      5.74e-03  
    3   -2214.1032789355      8.67e-03  
    4   -2214.6205379958      9.51e-04  
    5   -2214.6268653201      4.01e-04  
    6   -2214.6282485255      9.97e-05  
    7   -2214.6283335230      3.33e-05  
    8   -2214.6283432378      6.50e-06  Convergence criterion met
 ---------------------------------------
 SCF time:   CPU 109.55s  wall 7.00s 
 SCF   energy in the final basis set =    -2214.6283432378
 Total energy in the final basis set =    -2214.6283432378
 Exchange:     0.5400 Hartree-Fock + 1.0000 M06-2X
 Correlation:  1.0000 M06-2X
 Using SG-3 standard quadrature grid
 
 SM12 calculation using Merz-Singh-Kollman charges
 Citation of the SM12 model:
 Marenich, A.V.; Cramer, C.J.; Truhlar, D.G.
 J. Chem. Theory Comput. 2013, 9, 609-612.
 iSolventCode=           1
 Solvent: water                                                           
 
  Building new vdw surfaces
         Merz-Kollman ESP Net Atomic Charges

     Atom                 Charge (a.u.)
  ----------------------------------------
      1 C                     0.392931
      2 C                    -0.348556
      3 Cl                    0.023929
      4 C                     0.198991
      5 H                     0.095893
      6 C                    -0.199633
      7 Cl                   -0.031196
      8 C                     0.199259
      9 H                     0.108372
     10 C                    -0.407256
     11 Cl                    0.027177
     12 S                     0.848875
     13 O                    -0.444583
     14 O                    -0.442805
     15 N                    -0.730387
     16 H                     0.355428
     17 H                     0.353563
  ----------------------------------------
  Sum of atomic charges =     0.000000

  Related Dipole Moment =     5.6574 (X  2.3977 Y  3.5972 Z -3.6493)


 Charges (in A.U.) from Merz-Kollman fitting 
 -----------------------------------------------
 Center     Atomic                  MZ       
 Number     Number                  Charge
 -----------------------------------------------
    1          6                    0.392931
    2          6                   -0.348556
    3         17                    0.023929
    4          6                    0.198991
    5          1                    0.095893
    6          6                   -0.199633
    7         17                   -0.031196
    8          6                    0.199259
    9          1                    0.108372
   10          6                   -0.407256
   11         17                    0.027177
   12         16                    0.848875
   13          8                   -0.444583
   14          8                   -0.442805
   15          7                   -0.730387
   16          1                    0.355428
   17          1                    0.353563
 -----------------------------------------------
 A restricted SCF calculation will be
 performed using Roothaan-Hall, DIIS
 SCF converges when DIIS error is below 1.0e-05
 ---------------------------------------
  Cycle       Energy         DIIS error
 ---------------------------------------
         Merz-Kollman ESP Net Atomic Charges

     Atom                 Charge (a.u.)
  ----------------------------------------
      1 C                     0.361970
      2 C                    -0.321809
      3 Cl                   -0.002487
      4 C                     0.189182
      5 H                     0.110354
      6 C                    -0.178158
      7 Cl                   -0.040891
      8 C                     0.206370
      9 H                     0.121461
     10 C                    -0.392878
     11 Cl                    0.024240
     12 S                     0.906620
     13 O                    -0.497822
     14 O                    -0.501351
     15 N                    -0.730877
     16 H                     0.376534
     17 H                     0.369541
  ----------------------------------------
  Sum of atomic charges =     0.000000

  Related Dipole Moment =     6.8810 (X  3.1150 Y  4.1875 Z -4.4844)


 Charges (in A.U.) from Merz-Kollman fitting 
 -----------------------------------------------
 Center     Atomic                  MZ       
 Number     Number                  Charge
 -----------------------------------------------
    1          6                    0.361970
    2          6                   -0.321809
    3         17                   -0.002487
    4          6                    0.189182
    5          1                    0.110354
    6          6                   -0.178158
    7         17                   -0.040891
    8          6                    0.206370
    9          1                    0.121461
   10          6                   -0.392878
   11         17                    0.024240
   12         16                    0.906620
   13          8                   -0.497822
   14          8                   -0.501351
   15          7                   -0.730877
   16          1                    0.376534
   17          1                    0.369541
 -----------------------------------------------
    1   -2214.6283440433      3.72e-04  Roothaan Step
 ---------------------------------------
  Cycle       Energy         DIIS error
 ---------------------------------------
         Merz-Kollman ESP Net Atomic Charges

     Atom                 Charge (a.u.)
  ----------------------------------------
      1 C                     0.387072
      2 C                    -0.331466
      3 Cl                    0.003989
      4 C                     0.187612
      5 H                     0.112927
      6 C                    -0.194329
      7 Cl                   -0.027607
      8 C                     0.195909
      9 H                     0.127672
     10 C                    -0.415463
     11 Cl                    0.034032
     12 S                     0.855261
     13 O                    -0.471483
     14 O                    -0.469472
     15 N                    -0.733454
     16 H                     0.372841
     17 H                     0.365959
  ----------------------------------------
  Sum of atomic charges =     0.000000

  Related Dipole Moment =     6.5891 (X  2.9331 Y  3.9642 Z -4.3702)


 Charges (in A.U.) from Merz-Kollman fitting 
 -----------------------------------------------
 Center     Atomic                  MZ       
 Number     Number                  Charge
 -----------------------------------------------
    1          6                    0.387072
    2          6                   -0.331466
    3         17                    0.003989
    4          6                    0.187612
    5          1                    0.112927
    6          6                   -0.194329
    7         17                   -0.027607
    8          6                    0.195909
    9          1                    0.127672
   10          6                   -0.415463
   11         17                    0.034032
   12         16                    0.855261
   13          8                   -0.471483
   14          8                   -0.469472
   15          7                   -0.733454
   16          1                    0.372841
   17          1                    0.365959
 -----------------------------------------------
    1   -2214.6242973799      2.86e-04  
         Merz-Kollman ESP Net Atomic Charges

     Atom                 Charge (a.u.)
  ----------------------------------------
      1 C                     0.378804
      2 C                    -0.326676
      3 Cl                   -0.000676
      4 C                     0.183909
      5 H                     0.113163
      6 C                    -0.182085
      7 Cl                   -0.034384
      8 C                     0.196311
      9 H                     0.126617
     10 C                    -0.403013
     11 Cl                    0.028123
     12 S                     0.895774
     13 O                    -0.492150
     14 O                    -0.493748
     15 N                    -0.731457
     16 H                     0.374413
     17 H                     0.367074
  ----------------------------------------
  Sum of atomic charges =     0.000000

  Related Dipole Moment =     6.8056 (X  3.0591 Y  4.1143 Z -4.4755)


 Charges (in A.U.) from Merz-Kollman fitting 
 -----------------------------------------------
 Center     Atomic                  MZ       
 Number     Number                  Charge
 -----------------------------------------------
    1          6                    0.378804
    2          6                   -0.326676
    3         17                   -0.000676
    4          6                    0.183909
    5          1                    0.113163
    6          6                   -0.182085
    7         17                   -0.034384
    8          6                    0.196311
    9          1                    0.126617
   10          6                   -0.403013
   11         17                    0.028123
   12         16                    0.895774
   13          8                   -0.492150
   14          8                   -0.493748
   15          7                   -0.731457
   16          1                    0.374413
   17          1                    0.367074
 -----------------------------------------------
    2   -2214.6252321070      3.57e-04  
         Merz-Kollman ESP Net Atomic Charges

     Atom                 Charge (a.u.)
  ----------------------------------------
      1 C                     0.375277
      2 C                    -0.326165
      3 Cl                   -0.001400
      4 C                     0.186433
      5 H                     0.113112
      6 C                    -0.181566
      7 Cl                   -0.034833
      8 C                     0.199320
      9 H                     0.126586
     10 C                    -0.404624
     11 Cl                    0.028976
     12 S                     0.888965
     13 O                    -0.490204
     14 O                    -0.491529
     15 N                    -0.730681
     16 H                     0.374939
     17 H                     0.367392
  ----------------------------------------
  Sum of atomic charges =     0.000000

  Related Dipole Moment =     6.8445 (X  3.0739 Y  4.1184 Z -4.5207)


 Charges (in A.U.) from Merz-Kollman fitting 
 -----------------------------------------------
 Center     Atomic                  MZ       
 Number     Number                  Charge
 -----------------------------------------------
    1          6                    0.375277
    2          6                   -0.326165
    3         17                   -0.001400
    4          6                    0.186433
    5          1                    0.113112
    6          6                   -0.181566
    7         17                   -0.034833
    8          6                    0.199320
    9          1                    0.126586
   10          6                   -0.404624
   11         17                    0.028976
   12         16                    0.888965
   13          8                   -0.490204
   14          8                   -0.491529
   15          7                   -0.730681
   16          1                    0.374939
   17          1                    0.367392
 -----------------------------------------------
    3   -2214.6249114358      3.31e-05  
         Merz-Kollman ESP Net Atomic Charges

     Atom                 Charge (a.u.)
  ----------------------------------------
      1 C                     0.377908
      2 C                    -0.326142
      3 Cl                   -0.001645
      4 C                     0.185277
      5 H                     0.113507
      6 C                    -0.183046
      7 Cl                   -0.033857
      8 C                     0.197966
      9 H                     0.127060
     10 C                    -0.404309
     11 Cl                    0.028803
     12 S                     0.890723
     13 O                    -0.490946
     14 O                    -0.492317
     15 N                    -0.731443
     16 H                     0.374972
     17 H                     0.367490
  ----------------------------------------
  Sum of atomic charges =     0.000000

  Related Dipole Moment =     6.8425 (X  3.0756 Y  4.1177 Z -4.5173)


 Charges (in A.U.) from Merz-Kollman fitting 
 -----------------------------------------------
 Center     Atomic                  MZ       
 Number     Number                  Charge
 -----------------------------------------------
    1          6                    0.377908
    2          6                   -0.326142
    3         17                   -0.001645
    4          6                    0.185277
    5          1                    0.113507
    6          6                   -0.183046
    7         17                   -0.033857
    8          6                    0.197966
    9          1                    0.127060
   10          6                   -0.404309
   11         17                    0.028803
   12         16                    0.890723
   13          8                   -0.490946
   14          8                   -0.492317
   15          7                   -0.731443
   16          1                    0.374972
   17          1                    0.367490
 -----------------------------------------------
    4   -2214.6248236136      1.69e-05  
    5   -2214.6248026127      4.80e-06  Convergence criterion met
 ---------------------------------------
 SCF time:   CPU 107.26s  wall 7.00s 
(0)  E-EN(g) gas-phase elect-nuc energy                -2214.628343238 a.u.
(1)  E-EN(liq) elect-nuc energy of solute              -2214.624802613 a.u.
(2)  G-P(liq) polarization free energy of solvation           -13.5309 kcal/mol
(3)  G-ENP(liq) elect-nuc-pol free energy of system    -2214.646365420 a.u.
(4)  G-CDS(liq) cavity-dispersion-solvent structure 
     free energy                                                1.4770 kcal/mol
(5)  G-P-CDS(liq) = G-P(liq) + G-CDS(liq) = (2) + (4)         -12.0539 kcal/mol
(6)  G-S(liq) free energy of system = (1) + (5)        -2214.644011672 a.u.
(7)  DeltaE-EN(liq) elect-nuc reorganization
     energy of solute molecule (7) = (1) - (0)                  2.2218 kcal/mol
(8)  DeltaG-ENP(liq) elect-nuc-pol free energy
     of solvation (8) = (3) - (0)                             -11.3091 kcal/mol
(9)  DeltaG-S(liq) free energy of  solvation
     (9) = (6) - (0)                                           -9.8321 kcal/mol
 SCF   energy in the final basis set =    -2214.6440116720
 Total energy in the final basis set =    -2214.6440116720
 
 --------------------------------------------------------------
 
                    Orbital Energies (a.u.)
 --------------------------------------------------------------
 
 Alpha MOs
 -- Occupied --
********-102.6926-102.6907 -90.1888 -19.6633 -19.6627 -14.8123 -10.6674
-10.6671 -10.6557 -10.6368 -10.6024 -10.6011  -9.8499  -9.8422  -9.8401
 -8.5012  -7.5743  -7.5676  -7.5670  -7.5663  -7.5646  -7.5598  -7.5596
 -7.5578  -7.5571  -6.4235  -6.4230  -6.4226  -1.2689  -1.1531  -1.0580
 -1.0418  -1.0070  -1.0025  -0.9361  -0.8840  -0.8622  -0.7734  -0.7249
 -0.7121  -0.6579  -0.6295  -0.6098  -0.5988  -0.5801  -0.5546  -0.5459
 -0.5314  -0.5268  -0.4926  -0.4756  -0.4632  -0.4577  -0.4455  -0.4361
 -0.4209  -0.4177  -0.4032  -0.3996  -0.3930  -0.3852  -0.3780  -0.3333
 -0.3284
 -- Virtual --
 -0.0406  -0.0255  -0.0043   0.0037   0.0210   0.0255   0.0353   0.0442
  0.0472   0.0490   0.0633   0.0664   0.0753   0.0767   0.0833   0.0849
  0.0891   0.0977   0.1006   0.1058   0.1068   0.1142   0.1173   0.1275
  0.1297   0.1322   0.1382   0.1435   0.1496   0.1525   0.1603   0.1645
  0.1702   0.1717   0.1786   0.1841   0.1922   0.1986   0.2024   0.2089
  0.2122   0.2182   0.2248   0.2297   0.2323   0.2412   0.2461   0.2516
  0.2553   0.2626   0.2700   0.2826   0.2838   0.2923   0.2980   0.3051
  0.3127   0.3134   0.3184   0.3193   0.3243   0.3334   0.3428   0.3518
  0.3674   0.3832   0.3886   0.4184   0.4657   0.4821   0.5085   0.5506
  0.5669   0.5769   0.6039   0.6127   0.6319   0.6328   0.6459   0.6542
  0.6576   0.6757   0.6797   0.6826   0.6905   0.6944   0.7081   0.7280
  0.7329   0.7408   0.7542   0.7564   0.7652   0.7721   0.7837   0.7999
  0.8152   0.8253   0.8531   0.8809   0.9085   0.9184   0.9251   0.9291
  0.9399   0.9486   0.9576   0.9660   0.9697   0.9810   0.9921   1.0077
  1.0186   1.0275   1.0628   1.0660   1.0716   1.0783   1.0893   1.1140
  1.1248   1.1342   1.1554   1.1616   1.1722   1.1752   1.2038   1.2384
  1.2421   1.2489   1.2522   1.2706   1.3028   1.3274   1.3531   1.3712
  1.3797   1.3900   1.4009   1.4278   1.4532   1.4688   1.4771   1.4857
  1.5023   1.5238   1.5506   1.5670   1.5832   1.6003   1.6830   1.7351
  1.7609   1.7887   1.8078   1.8194   1.8429   1.8611   1.8793   1.9149
  1.9554   1.9985   2.0025   2.0115   2.0329   2.0999   2.1213   2.1259
  2.1424   2.1567   2.1633   2.1846   2.2023   2.2325   2.2592   2.2809
  2.3048   2.3594   2.4459   2.4928   2.5336   2.5864   2.6028   2.6545
  2.6825   2.7394   2.7775   2.8431   2.8918   2.9597   3.0413   3.2646
  3.8948   4.0518   4.1869   4.2579   4.2811   4.2851   4.3053   4.3567
  4.3970   4.4384   4.4680   4.4722   4.6615
 --------------------------------------------------------------
 
          Ground-State Mulliken Net Atomic Charges

     Atom                 Charge (a.u.)
  ----------------------------------------
      1 C                    -3.696667
      2 C                     0.089490
      3 Cl                    0.075748
      4 C                     0.350356
      5 H                     0.294162
      6 C                     0.235165
      7 Cl                    0.239916
      8 C                     0.831359
      9 H                     0.305883
     10 C                     1.305813
     11 Cl                    0.246550
     12 S                     0.912366
     13 O                    -0.706126
     14 O                    -0.648182
     15 N                    -0.836395
     16 H                     0.513798
     17 H                     0.486763
  ----------------------------------------
  Sum of atomic charges =     0.000000

         Merz-Kollman ESP Net Atomic Charges

     Atom                 Charge (a.u.)
  ----------------------------------------
      1 C                     0.377438
      2 C                    -0.326404
      3 Cl                   -0.001530
      4 C                     0.185293
      5 H                     0.113501
      6 C                    -0.182167
      7 Cl                   -0.034094
      8 C                     0.197935
      9 H                     0.127083
     10 C                    -0.404615
     11 Cl                    0.028888
     12 S                     0.891054
     13 O                    -0.491006
     14 O                    -0.492408
     15 N                    -0.731183
     16 H                     0.374858
     17 H                     0.367359
  ----------------------------------------
  Sum of atomic charges =     0.000000

  Related Dipole Moment =     6.8445 (X  3.0749 Y  4.1182 Z -4.5203)

 -----------------------------------------------------------------
                    Cartesian Multipole Moments
 -----------------------------------------------------------------
    Charge (ESU x 10^10)
                -0.0000
    Dipole Moment (Debye)
         X       3.0408      Y       3.9783      Z      -4.5426
       Tot       6.7608
    Quadrupole Moments (Debye-Ang)
        XX    -106.0053     XY       0.2507     YY     -98.4780
        XZ       8.9263     YZ       1.8584     ZZ    -100.9142
    Octopole Moments (Debye-Ang^2)
       XXX     394.5128    XXY     -73.9804    XYY     127.3232
       YYY    -200.2638    XXZ     107.9474    XYZ       8.5946
       YYZ     144.6743    XZZ     129.6682    YZZ     -67.3627
       ZZZ     375.8955
    Hexadecapole Moments (Debye-Ang^3)
      XXXX   -2480.5925   XXXY     395.5399   XXYY    -523.8604
      XYYY     396.1733   YYYY    -580.9399   XXXZ    -443.2840
      XXYZ     110.9839   XYYZ    -170.9194   YYYZ     464.4092
      XXZZ   -1050.4495   XYZZ     117.8267   YYZZ    -789.3924
      XZZZ    -492.0091   YZZZ     394.3753   ZZZZ   -3994.4106
 -----------------------------------------------------------------
 Total job time:  16.80s(wall), 224.89s(cpu) 
 Thu May 26 10:29:25 2022

        *************************************************************
        *                                                           *
        *  Thank you very much for using Q-Chem.  Have a nice day.  *
        *                                                           *
        *************************************************************


