                  Welcome to Q-Chem
     A Quantum Leap Into The Future Of Chemistry


 Q-Chem 5.4 (devel), Q-Chem, Inc., Pleasanton, CA (2021)

 E. Epifanovsky,  A. T. B. Gilbert,  Xintian Feng,  Joonho Lee,  Yuezhi Mao,  
 N. Mardirossian,  P. Pokhilko,  A. White,  M. Wormit,  M. P. Coons,  
 A. L. Dempwolff,  Zhengting Gan,  D. Hait,  P. R. Horn,  L. D. Jacobson,  
 I. Kaliman,  J. Kussmann,  A. W. Lange,  Ka Un Lao,  D. S. Levine,  Jie Liu,  
 S. C. McKenzie,  A. F. Morrison,  K. Nanda,  F. Plasser,  D. R. Rehn,  
 M. L. Vidal,  Zhi-Qiang You,  Ying Zhu,  B. Alam,  B. Albrecht,  
 A. Aldossary,  E. Alguire,  J. H. Andersen,  D. Barton,  K. Begam,  A. Behn,  
 Y. A. Bernard,  E. J. Berquist,  H. Burton,  A. Carreras,  K. Carter-Fenk,  
 R. Chakraborty,  A. D. Chien,  K. D. Closser,  V. Cofer-Shabica,  
 S. Dasgupta,  Jia Deng,  M. de Wergifosse,  M. Diedenhofen,  Hainam Do,  
 S. Ehlert,  Po-Tung Fang,  S. Fatehi,  Qingguo Feng,  T. Friedhoff,  
 J. Gayvert,  Qinghui Ge,  G. Gidofalvi,  M. Goldey,  J. Gomes,  
 C. Gonzalez-Espinoza,  S. Gulania,  A. Gunina,  M. W. D. Hanson-Heine,  
 P. H. P. Harbach,  A. W. Hauser,  M. F. Herbst,  M. Hernandez Vera,  
 M. Hodecker,  Z. C. Holden,  S. Houck,  Xunkun Huang,  Kerwin Hui,  
 B. C. Huynh,  M. Ivanov,  Hyunjun Ji,  Hanjie Jiang,  B. Kaduk,  S. Kaehler,  
 K. Khistyaev,  Jaehoon Kim,  P. Klunzinger,  Z. Koczor-Benda,  
 Joong Hoon Koh,  D. Kosenkov,  L. Koulias,  T. Kowalczyk,  C. M. Krauter,  
 K. Kue,  A. Kunitsa,  T. Kus,  A. Landau,  K. V. Lawler,  D. Lefrancois,  
 S. Lehtola,  Rain Li,  Yi-Pei Li,  Jiashu Liang,  M. Liebenthal,  
 Hung-Hsuan Lin,  You-Sheng Lin,  Fenglai Liu,  Kuan-Yu Liu,  
 M. Loipersberger,  A. Luenser,  A. Manjanath,  P. Manohar,  E. Mansoor,  
 S. F. Manzer,  Shan-Ping Mao,  A. V. Marenich,  T. Markovich,  S. Mason,  
 S. A. Maurer,  P. F. McLaughlin,  M. F. S. J. Menger,  J.-M. Mewes,  
 S. A. Mewes,  P. Morgante,  J. W. Mullinax,  K. J. Oosterbaan,  G. Paran,  
 Alexander C. Paul,  Suranjan K. Paul,  F. Pavosevic,  Zheng Pei,  S. Prager,  
 E. I. Proynov,  E. Ramos,  B. Rana,  A. E. Rask,  A. Rettig,  R. M. Richard,  
 F. Rob,  E. Rossomme,  T. Scheele,  M. Scheurer,  M. Schneider,  
 N. Sergueev,  S. M. Sharada,  W. Skomorowski,  D. W. Small,  C. J. Stein,  
 Yu-Chuan Su,  E. J. Sundstrom,  Zhen Tao,  J. Thirman,  T. Tsuchimochi,  
 N. M. Tubman,  S. P. Veccham,  O. Vydrov,  J. Wenzel,  J. Witte,  A. Yamada,  
 Kun Yao,  S. Yeganeh,  S. R. Yost,  A. Zech,  Igor Ying Zhang,  Xing Zhang,  
 Yu Zhang,  D. Zuev,  A. Aspuru-Guzik,  A. T. Bell,  N. A. Besley,  
 K. B. Bravaya,  B. R. Brooks,  D. Casanova,  Jeng-Da Chai,  S. Coriani,  
 C. J. Cramer,  A. E. DePrince, III,  R. A. DiStasio Jr.,  A. Dreuw,  
 B. D. Dunietz,  T. R. Furlani,  W. A. Goddard III,  S. Grimme,  
 S. Hammes-Schiffer,  T. Head-Gordon,  W. J. Hehre,  Chao-Ping Hsu,  
 T.-C. Jagau,  Yousung Jung,  A. Klamt,  Jing Kong,  D. S. Lambrecht,  
 WanZhen Liang,  N. J. Mayhall,  C. W. McCurdy,  J. B. Neaton,  
 C. Ochsenfeld,  J. A. Parkhill,  R. Peverati,  V. A. Rassolov,  Yihan Shao,  
 L. V. Slipchenko,  T. Stauch,  R. P. Steele,  J. E. Subotnik,  
 A. J. W. Thom,  A. Tkatchenko,  D. G. Truhlar,  T. Van Voorhis,  
 T. A. Wesolowski,  K. B. Whaley,  H. L. Woodcock III,  P. M. Zimmerman,  
 S. Faraji,  P. M. W. Gill,  M. Head-Gordon,  J. M. Herbert,  A. I. Krylov

 Additional authors for Version 5.4.1: 
 S. Kotaru,  Shaozhi Li,  Xiangyuan Li,  F. Matz,  A. Molle,  Haisheng Ren,  
 Yingli Su,  Hung-Yi Tsai,  C. Utku,  Fang Wang

 Contributors to earlier versions of Q-Chem not listed above: 
 R. D. Adamson,  B. Austin,  R. Baer,  J. Baker,  G. J. O. Beran,  
 K. Brandhorst,  S. T. Brown,  E. F. C. Byrd,  A. K. Chakraborty,  
 G. K. L. Chan,  Chun-Min Chang,  Yunqing Chen,  C.-L. Cheng,  
 Siu Hung Chien,  D. M. Chipman,  D. L. Crittenden,  H. Dachsel,  
 R. J. Doerksen,  A. D. Dutoi,  R. G. Edgar,  J. Fosso-Tande,  
 L. Fusti-Molnar,  D. Ghosh,  A. Ghysels,  A. Golubeva-Zadorozhnaya,  
 J. Gonthier,  M. S. Gordon,  S. R. Gwaltney,  G. Hawkins,  J. E. Herr,  
 A. Heyden,  S. Hirata,  E. G. Hohenstein,  G. Kedziora,  F. J. Keil,  
 C. Kelley,  Jihan Kim,  R. A. King,  R. Z. Khaliullin,  P. P. Korambath,  
 W. Kurlancheek,  A. Laurent,  A. M. Lee,  M. S. Lee,  S. V. Levchenko,  
 Ching Yeh Lin,  D. Liotard,  E. Livshits,  R. C. Lochan,  I. Lotan,  
 L. A. Martinez-Martinez,  P. E. Maslen,  N. Nair,  D. P. O'Neill,  
 D. Neuhauser,  E. Neuscamman,  C. M. Oana,  R. Olivares-Amaya,  R. Olson,  
 T. M. Perrine,  B. Peters,  P. A. Pieniazek,  A. Prociuk,  Y. M. Rhee,  
 J. Ritchie,  M. A. Rohrdanz,  E. Rosta,  N. J. Russ,  H. F. Schaefer III,  
 M. W. Schmidt,  N. E. Schultz,  S. Sharma,  N. Shenvi,  C. D. Sherrill,  
 A. C. Simmonett,  A. Sodt,  T. Stein,  D. Stuck,  K. S. Thanthiriwatte,  
 V. Vanovschi,  L. Vogt,  Tao Wang,  A. Warshel,  M. A. Watson,  
 C. F. Williams,  Q. Wu,  X. Xu,  Jun Yang,  W. Zhang,  Yan Zhao

 Please cite Q-Chem as follows:
 Y. Shao et al., Mol. Phys. 113, 184-215 (2015)
 DOI: 10.1080/00268976.2014.952696

 Q-Chem 5.4.1 for Intel X86 EM64T Linux

 Parts of Q-Chem use Armadillo 9.800.1 (Horizon Scraper).
 http://arma.sourceforge.net/

 Q-Chem begins on Sat Jul  2 00:19:44 2022  

 Host: gadi-cpu-clx-0886.gadi.nci.org.au
0

     Scratch files written to /jobfs/49993314.gadi-pbs/qchem680560//
 Processing $rem in /apps/qchem/5.4.1/config/preferences:
 Processing $rem in /home/561/yj5695/.qchemrc:
 Symmetry turned off for PCM/SM12/SMD calculation
 Method-specific promolecule density matrix will be built for SM12 calculation

 Checking the input file for inconsistencies... 	...done.

--------------------------------------------------------------
User input:
--------------------------------------------------------------
$molecule
0  1
C -1.3107189892  0.7285247859 -0.7500127946
C -2.4065913197  0.546590483 -1.6195286708
Cl -4.0352536263  0.5817289593 -1.0170404983
C -2.2267914639  0.3339292248 -2.9672464705
H -3.0826626622  0.2015820324 -3.6221815986
C -0.9264496934  0.2786683353 -3.5156357424
C  0.1537904336  0.457033365 -2.6342340476
S  1.8086742628  0.3809961458 -3.2293240236
C -0.0304174273  0.6871535668 -1.2751992236
H  0.8363541462  0.8375388179 -0.6375892344
S -1.5528301629  1.0057287407  0.9959888675
O -2.2492536359  2.2808629678  1.1616003149
O -2.1427817576 -0.2038408181  1.5682862591
N -0.0821846354  1.1815237295  1.6896616432
H  0.4223244483  2.0201631186  1.399106953
H  0.4980120567  0.3417729458  1.6673162622
N -0.747188616  0.1100764865 -4.8506611835
C  0.5409406308 -0.2419023417 -5.413426639
N  1.5578708145  0.6942829599 -4.8654101554
O  2.5885961279  1.4848363863 -2.6679772428
O  2.3548914222 -0.9670827227 -3.019967533
H -1.562405706 -0.1612810431 -5.3950697284
C  2.8582836805  0.6475031134 -5.5762904121
C  0.492159187 -0.1252225097 -6.9343431509
S -0.8746818578 -1.0530143586 -7.7046946964
C -0.5845264888 -2.7548379913 -7.1503590058
C  0.6095204592 -3.4198806193 -7.7862132878
H  0.821493941 -1.2714185873 -5.1386427907
H  2.7504679272  1.1770463541 -6.5219100317
H  3.1888942377 -0.3815666228 -5.7557743453
H  3.6048467685  1.1745221721 -4.9806656488
H  1.4366011658 -0.4493454665 -7.3675534407
H  0.3136598305  0.9162615913 -7.2216657707
H -1.472084433 -3.322225327 -7.4441619492
H -0.4806201403 -2.8257734142 -6.0644339732
F  0.5491639164 -3.434520915 -9.1288371914
F  0.7100789857 -4.7024018573 -7.3862374479
F  1.7718731733 -2.8204116873 -7.4573493706
$end

$rem
jobtype sp
exchange M062X
basis 6-31+G*
SMX_GAS_PHASE = TRUE
solvent_method sm12
$end

$smx
solvent water
charges mk
$end
--------------------------------------------------------------
 ----------------------------------------------------------------
             Standard Nuclear Orientation (Angstroms)
    I     Atom           X                Y                Z
 ----------------------------------------------------------------
    1      C      -1.3107189892     0.7285247859    -0.7500127946
    2      C      -2.4065913197     0.5465904830    -1.6195286708
    3      Cl     -4.0352536263     0.5817289593    -1.0170404983
    4      C      -2.2267914639     0.3339292248    -2.9672464705
    5      H      -3.0826626622     0.2015820324    -3.6221815986
    6      C      -0.9264496934     0.2786683353    -3.5156357424
    7      C       0.1537904336     0.4570333650    -2.6342340476
    8      S       1.8086742628     0.3809961458    -3.2293240236
    9      C      -0.0304174273     0.6871535668    -1.2751992236
   10      H       0.8363541462     0.8375388179    -0.6375892344
   11      S      -1.5528301629     1.0057287407     0.9959888675
   12      O      -2.2492536359     2.2808629678     1.1616003149
   13      O      -2.1427817576    -0.2038408181     1.5682862591
   14      N      -0.0821846354     1.1815237295     1.6896616432
   15      H       0.4223244483     2.0201631186     1.3991069530
   16      H       0.4980120567     0.3417729458     1.6673162622
   17      N      -0.7471886160     0.1100764865    -4.8506611835
   18      C       0.5409406308    -0.2419023417    -5.4134266390
   19      N       1.5578708145     0.6942829599    -4.8654101554
   20      O       2.5885961279     1.4848363863    -2.6679772428
   21      O       2.3548914222    -0.9670827227    -3.0199675330
   22      H      -1.5624057060    -0.1612810431    -5.3950697284
   23      C       2.8582836805     0.6475031134    -5.5762904121
   24      C       0.4921591870    -0.1252225097    -6.9343431509
   25      S      -0.8746818578    -1.0530143586    -7.7046946964
   26      C      -0.5845264888    -2.7548379913    -7.1503590058
   27      C       0.6095204592    -3.4198806193    -7.7862132878
   28      H       0.8214939410    -1.2714185873    -5.1386427907
   29      H       2.7504679272     1.1770463541    -6.5219100317
   30      H       3.1888942377    -0.3815666228    -5.7557743453
   31      H       3.6048467685     1.1745221721    -4.9806656488
   32      H       1.4366011658    -0.4493454665    -7.3675534407
   33      H       0.3136598305     0.9162615913    -7.2216657707
   34      H      -1.4720844330    -3.3222253270    -7.4441619492
   35      H      -0.4806201403    -2.8257734142    -6.0644339732
   36      F       0.5491639164    -3.4345209150    -9.1288371914
   37      F       0.7100789857    -4.7024018573    -7.3862374479
   38      F       1.7718731733    -2.8204116873    -7.4573493706
 ----------------------------------------------------------------
 Nuclear Repulsion Energy =        3150.29503766 hartrees
 There are      112 alpha and      112 beta electrons
 Requested basis set is 6-31+G(d)
 There are 155 shells and 517 basis functions

 Total QAlloc Memory Limit   2000 MB
 Mega-Array Size       188 MB
 MEM_STATIC part       192 MB
 A cutoff of  1.0D-08 yielded   7222 shell pairs
 There are     85025 function pairs
 Smallest overlap matrix eigenvalue = 2.55E-07

 Q-Chem warning in module stvman/mkSTV.C, line 323:

 Overlap eigenvalue is smaller than square root of threshold
 Use THRESH >= 12 to get rid of this warning

 Linear dependence detected in AO basis
 Tighter screening thresholds may be required for diffuse basis sets
 Use S2THRESH > 14 and THRESH = 14 in case of SCF convergence issues
 Number of orthogonalized atomic orbitals = 514
 Maximum deviation from orthogonality = 2.521E-10

 Scale SEOQF with 1.000000e-01/1.000000e-01/1.000000e-02

 Standard Electronic Orientation quadrupole field applied
 Nucleus-field energy     =     0.0000000187 hartrees
 ================ Generating on-the-fly Promolecule Density  ================
Attempting to make child job directory: /jobfs/49993314.gadi-pbs/qchem680560//Frg1/
Attempting to make child job directory: /jobfs/49993314.gadi-pbs/qchem680560//Frg2/
Attempting to make child job directory: /jobfs/49993314.gadi-pbs/qchem680560//Frg3/
Attempting to make child job directory: /jobfs/49993314.gadi-pbs/qchem680560//Frg4/
Attempting to make child job directory: /jobfs/49993314.gadi-pbs/qchem680560//Frg5/
Attempting to make child job directory: /jobfs/49993314.gadi-pbs/qchem680560//Frg6/
Attempting to make child job directory: /jobfs/49993314.gadi-pbs/qchem680560//Frg7/
Creating input file /jobfs/49993314.gadi-pbs/qchem680560/Frg1.input
using default PutDataFrgm: nothing
calling putenv with: QCSCRATCH=/jobfs/49993314.gadi-pbs/qchem680560/ 
Spawning Job For Fragment 0
Done Job For Fragment 0
calling putenv with: QCSCRATCH=/jobfs/49993314.gadi-pbs 
calling putenv with: QCTHREADS=8 
Creating input file /jobfs/49993314.gadi-pbs/qchem680560/Frg2.input
using default PutDataFrgm: nothing
calling putenv with: QCSCRATCH=/jobfs/49993314.gadi-pbs/qchem680560/ 
Spawning Job For Fragment 1
Done Job For Fragment 1
calling putenv with: QCSCRATCH=/jobfs/49993314.gadi-pbs 
calling putenv with: QCTHREADS=8 
Creating input file /jobfs/49993314.gadi-pbs/qchem680560/Frg3.input
using default PutDataFrgm: nothing
calling putenv with: QCSCRATCH=/jobfs/49993314.gadi-pbs/qchem680560/ 
Spawning Job For Fragment 2
Done Job For Fragment 2
calling putenv with: QCSCRATCH=/jobfs/49993314.gadi-pbs 
calling putenv with: QCTHREADS=8 
Creating input file /jobfs/49993314.gadi-pbs/qchem680560/Frg4.input
using default PutDataFrgm: nothing
calling putenv with: QCSCRATCH=/jobfs/49993314.gadi-pbs/qchem680560/ 
Spawning Job For Fragment 3
Done Job For Fragment 3
calling putenv with: QCSCRATCH=/jobfs/49993314.gadi-pbs 
calling putenv with: QCTHREADS=8 
Creating input file /jobfs/49993314.gadi-pbs/qchem680560/Frg5.input
using default PutDataFrgm: nothing
calling putenv with: QCSCRATCH=/jobfs/49993314.gadi-pbs/qchem680560/ 
Spawning Job For Fragment 4
Done Job For Fragment 4
calling putenv with: QCSCRATCH=/jobfs/49993314.gadi-pbs 
calling putenv with: QCTHREADS=8 
Creating input file /jobfs/49993314.gadi-pbs/qchem680560/Frg6.input
using default PutDataFrgm: nothing
calling putenv with: QCSCRATCH=/jobfs/49993314.gadi-pbs/qchem680560/ 
Spawning Job For Fragment 5
Done Job For Fragment 5
calling putenv with: QCSCRATCH=/jobfs/49993314.gadi-pbs 
calling putenv with: QCTHREADS=8 
Creating input file /jobfs/49993314.gadi-pbs/qchem680560/Frg7.input
using default PutDataFrgm: nothing
calling putenv with: QCSCRATCH=/jobfs/49993314.gadi-pbs/qchem680560/ 
Spawning Job For Fragment 6
Done Job For Fragment 6
calling putenv with: QCSCRATCH=/jobfs/49993314.gadi-pbs 
calling putenv with: QCTHREADS=8 
 Time for running child jobs:  CPU 0.71 s  wall 2.60 s
 ============= Method Specific Promolecule Density Constructed =============
 Guess from superposition of atomic densities
 Warning:  Energy on first SCF cycle will be non-variational
 SAD guess density has 224.000000 electrons

 -----------------------------------------------------------------------
  General SCF calculation program by
  Eric Jon Sundstrom, Paul Horn, Yuezhi Mao, Dmitri Zuev, Alec White,
  David Stuck, Shaama M.S., Shane Yost, Joonho Lee, David Small,
  Daniel Levine, Susi Lehtola, Hugh Burton, Evgeny Epifanovsky,
  Bang C. Huynh
 -----------------------------------------------------------------------
 Exchange:     0.5400 Hartree-Fock + 1.0000 M06-2X
 Correlation:  1.0000 M06-2X
 Using SG-3 standard quadrature grid
 using 8 threads for integral computing
 -------------------------------------------------------
 OpenMP Integral computing Module                
 Release: version 1.0, May 2013, Q-Chem Inc. Pittsburgh 
 -------------------------------------------------------
 A restricted SCF calculation will be
 performed using DIIS
 SCF converges when DIIS error is below 1.0e-05
 ---------------------------------------
  Cycle       Energy         DIIS error
 ---------------------------------------
    1   -2853.3068106460      3.29e-02  
    2   -2845.1788353351      4.44e-03  
    3   -2844.7670738695      6.27e-03  
    4   -2845.7065540029      7.29e-04  
    5   -2845.7195440271      2.93e-04  
    6   -2845.7218796974      7.12e-05  
    7   -2845.7220098992      2.45e-05  
    8   -2845.7220304113      8.75e-06  Convergence criterion met
 ---------------------------------------
 SCF time:   CPU 397.56s  wall 50.00s 
 SCF   energy in the final basis set =    -2845.7220304113
 Total energy in the final basis set =    -2845.7220304113
 Exchange:     0.5400 Hartree-Fock + 1.0000 M06-2X
 Correlation:  1.0000 M06-2X
 Using SG-3 standard quadrature grid
 
 SM12 calculation using Merz-Singh-Kollman charges
 Citation of the SM12 model:
 Marenich, A.V.; Cramer, C.J.; Truhlar, D.G.
 J. Chem. Theory Comput. 2013, 9, 609-612.
 iSolventCode=           1
 Solvent: water                                                           
 
  Building new vdw surfaces
         Merz-Kollman ESP Net Atomic Charges

     Atom                 Charge (a.u.)
  ----------------------------------------
      1 C                    -0.148320
      2 C                     0.006729
      3 Cl                    0.003665
      4 C                    -0.272079
      5 H                     0.166079
      6 C                     0.493649
      7 C                    -0.262185
      8 S                     0.899453
      9 C                    -0.072445
     10 H                     0.154627
     11 S                     1.134500
     12 O                    -0.515967
     13 O                    -0.524972
     14 N                    -0.861994
     15 H                     0.406334
     16 H                     0.410351
     17 N                    -0.559131
     18 C                     0.117489
     19 N                    -0.275451
     20 O                    -0.473416
     21 O                    -0.491166
     22 H                     0.334725
     23 C                    -0.447854
     24 C                    -0.476884
     25 S                    -0.049874
     26 C                    -0.535804
     27 C                     0.641053
     28 H                     0.169792
     29 H                     0.179683
     30 H                     0.187056
     31 H                     0.230642
     32 H                     0.225130
     33 H                     0.298648
     34 H                     0.287760
     35 H                     0.205742
     36 F                    -0.190452
     37 F                    -0.208940
     38 F                    -0.186170
  ----------------------------------------
  Sum of atomic charges =     0.000000

  Related Dipole Moment =     7.6713 (X  1.1616 Y -0.8208 Z -7.5383)


 Charges (in A.U.) from Merz-Kollman fitting 
 -----------------------------------------------
 Center     Atomic                  MZ       
 Number     Number                  Charge
 -----------------------------------------------
    1          6                   -0.148320
    2          6                    0.006729
    3         17                    0.003665
    4          6                   -0.272079
    5          1                    0.166079
    6          6                    0.493649
    7          6                   -0.262185
    8         16                    0.899453
    9          6                   -0.072445
   10          1                    0.154627
   11         16                    1.134500
   12          8                   -0.515967
   13          8                   -0.524972
   14          7                   -0.861994
   15          1                    0.406334
   16          1                    0.410351
   17          7                   -0.559131
   18          6                    0.117489
   19          7                   -0.275451
   20          8                   -0.473416
   21          8                   -0.491166
   22          1                    0.334725
   23          6                   -0.447854
   24          6                   -0.476884
   25         16                   -0.049874
   26          6                   -0.535804
   27          6                    0.641053
   28          1                    0.169792
   29          1                    0.179683
   30          1                    0.187056
   31          1                    0.230642
   32          1                    0.225130
   33          1                    0.298648
   34          1                    0.287760
   35          1                    0.205742
   36          9                   -0.190452
   37          9                   -0.208940
   38          9                   -0.186170
 -----------------------------------------------
 A restricted SCF calculation will be
 performed using Roothaan-Hall, DIIS
 SCF converges when DIIS error is below 1.0e-05
 ---------------------------------------
  Cycle       Energy         DIIS error
 ---------------------------------------
         Merz-Kollman ESP Net Atomic Charges

     Atom                 Charge (a.u.)
  ----------------------------------------
      1 C                    -0.186776
      2 C                     0.021875
      3 Cl                   -0.026843
      4 C                    -0.276659
      5 H                     0.188558
      6 C                     0.541431
      7 C                    -0.277427
      8 S                     0.956161
      9 C                    -0.077240
     10 H                     0.173638
     11 S                     1.174271
     12 O                    -0.576030
     13 O                    -0.585373
     14 N                    -0.849049
     15 H                     0.427171
     16 H                     0.432206
     17 N                    -0.551440
     18 C                     0.155806
     19 N                    -0.295556
     20 O                    -0.528408
     21 O                    -0.544733
     22 H                     0.348978
     23 C                    -0.431186
     24 C                    -0.449311
     25 S                    -0.057941
     26 C                    -0.547743
     27 C                     0.645256
     28 H                     0.159984
     29 H                     0.194113
     30 H                     0.187531
     31 H                     0.219753
     32 H                     0.219144
     33 H                     0.301732
     34 H                     0.305320
     35 H                     0.219612
     36 F                    -0.202434
     37 F                    -0.220051
     38 F                    -0.188339
  ----------------------------------------
  Sum of atomic charges =     0.000000

  Related Dipole Moment =     9.8545 (X  1.5338 Y -0.8685 Z -9.6956)


 Charges (in A.U.) from Merz-Kollman fitting 
 -----------------------------------------------
 Center     Atomic                  MZ       
 Number     Number                  Charge
 -----------------------------------------------
    1          6                   -0.186776
    2          6                    0.021875
    3         17                   -0.026843
    4          6                   -0.276659
    5          1                    0.188558
    6          6                    0.541431
    7          6                   -0.277427
    8         16                    0.956161
    9          6                   -0.077240
   10          1                    0.173638
   11         16                    1.174271
   12          8                   -0.576030
   13          8                   -0.585373
   14          7                   -0.849049
   15          1                    0.427171
   16          1                    0.432206
   17          7                   -0.551440
   18          6                    0.155806
   19          7                   -0.295556
   20          8                   -0.528408
   21          8                   -0.544733
   22          1                    0.348978
   23          6                   -0.431186
   24          6                   -0.449311
   25         16                   -0.057941
   26          6                   -0.547743
   27          6                    0.645256
   28          1                    0.159984
   29          1                    0.194113
   30          1                    0.187531
   31          1                    0.219753
   32          1                    0.219144
   33          1                    0.301732
   34          1                    0.305320
   35          1                    0.219612
   36          9                   -0.202434
   37          9                   -0.220051
   38          9                   -0.188339
 -----------------------------------------------
    1   -2845.7220285367      3.31e-04  Roothaan Step
 ---------------------------------------
  Cycle       Energy         DIIS error
 ---------------------------------------
         Merz-Kollman ESP Net Atomic Charges

     Atom                 Charge (a.u.)
  ----------------------------------------
      1 C                    -0.195087
      2 C                     0.088843
      3 Cl                   -0.031992
      4 C                    -0.358240
      5 H                     0.205202
      6 C                     0.576458
      7 C                    -0.312146
      8 S                     0.940590
      9 C                    -0.072486
     10 H                     0.176076
     11 S                     1.160225
     12 O                    -0.556146
     13 O                    -0.564826
     14 N                    -0.878611
     15 H                     0.431678
     16 H                     0.437106
     17 N                    -0.568095
     18 C                     0.082716
     19 N                    -0.296473
     20 O                    -0.507729
     21 O                    -0.521609
     22 H                     0.350266
     23 C                    -0.441717
     24 C                    -0.461040
     25 S                    -0.033997
     26 C                    -0.565797
     27 C                     0.648792
     28 H                     0.181288
     29 H                     0.199777
     30 H                     0.195677
     31 H                     0.225415
     32 H                     0.227464
     33 H                     0.310639
     34 H                     0.312213
     35 H                     0.223353
     36 F                    -0.199552
     37 F                    -0.219060
     38 F                    -0.189174
  ----------------------------------------
  Sum of atomic charges =     0.000000

  Related Dipole Moment =     9.5826 (X  1.5004 Y -1.0024 Z -9.4112)


 Charges (in A.U.) from Merz-Kollman fitting 
 -----------------------------------------------
 Center     Atomic                  MZ       
 Number     Number                  Charge
 -----------------------------------------------
    1          6                   -0.195087
    2          6                    0.088843
    3         17                   -0.031992
    4          6                   -0.358240
    5          1                    0.205202
    6          6                    0.576458
    7          6                   -0.312146
    8         16                    0.940590
    9          6                   -0.072486
   10          1                    0.176076
   11         16                    1.160225
   12          8                   -0.556146
   13          8                   -0.564826
   14          7                   -0.878611
   15          1                    0.431678
   16          1                    0.437106
   17          7                   -0.568095
   18          6                    0.082716
   19          7                   -0.296473
   20          8                   -0.507729
   21          8                   -0.521609
   22          1                    0.350266
   23          6                   -0.441717
   24          6                   -0.461040
   25         16                   -0.033997
   26          6                   -0.565797
   27          6                    0.648792
   28          1                    0.181288
   29          1                    0.199777
   30          1                    0.195677
   31          1                    0.225415
   32          1                    0.227464
   33          1                    0.310639
   34          1                    0.312213
   35          1                    0.223353
   36          9                   -0.199552
   37          9                   -0.219060
   38          9                   -0.189174
 -----------------------------------------------
    1   -2845.7105432953      2.46e-04  
         Merz-Kollman ESP Net Atomic Charges

     Atom                 Charge (a.u.)
  ----------------------------------------
      1 C                    -0.198401
      2 C                     0.054748
      3 Cl                   -0.029647
      4 C                    -0.327459
      5 H                     0.199666
      6 C                     0.571838
      7 C                    -0.295108
      8 S                     0.966819
      9 C                    -0.075810
     10 H                     0.174836
     11 S                     1.188933
     12 O                    -0.576555
     13 O                    -0.585821
     14 N                    -0.863954
     15 H                     0.429860
     16 H                     0.435133
     17 N                    -0.555992
     18 C                     0.107373
     19 N                    -0.290242
     20 O                    -0.528177
     21 O                    -0.543413
     22 H                     0.347861
     23 C                    -0.441552
     24 C                    -0.451293
     25 S                    -0.044590
     26 C                    -0.562928
     27 C                     0.652847
     28 H                     0.173896
     29 H                     0.198922
     30 H                     0.193686
     31 H                     0.223287
     32 H                     0.222764
     33 H                     0.307121
     34 H                     0.311307
     35 H                     0.223524
     36 F                    -0.202665
     37 F                    -0.221071
     38 F                    -0.189742
  ----------------------------------------
  Sum of atomic charges =     0.000000

  Related Dipole Moment =     9.9807 (X  1.5861 Y -0.9490 Z -9.8080)


 Charges (in A.U.) from Merz-Kollman fitting 
 -----------------------------------------------
 Center     Atomic                  MZ       
 Number     Number                  Charge
 -----------------------------------------------
    1          6                   -0.198401
    2          6                    0.054748
    3         17                   -0.029647
    4          6                   -0.327459
    5          1                    0.199666
    6          6                    0.571838
    7          6                   -0.295108
    8         16                    0.966819
    9          6                   -0.075810
   10          1                    0.174836
   11         16                    1.188933
   12          8                   -0.576555
   13          8                   -0.585821
   14          7                   -0.863954
   15          1                    0.429860
   16          1                    0.435133
   17          7                   -0.555992
   18          6                    0.107373
   19          7                   -0.290242
   20          8                   -0.528177
   21          8                   -0.543413
   22          1                    0.347861
   23          6                   -0.441552
   24          6                   -0.451293
   25         16                   -0.044590
   26          6                   -0.562928
   27          6                    0.652847
   28          1                    0.173896
   29          1                    0.198922
   30          1                    0.193686
   31          1                    0.223287
   32          1                    0.222764
   33          1                    0.307121
   34          1                    0.311307
   35          1                    0.223524
   36          9                   -0.202665
   37          9                   -0.221071
   38          9                   -0.189742
 -----------------------------------------------
    2   -2845.7129227384      2.99e-04  
         Merz-Kollman ESP Net Atomic Charges

     Atom                 Charge (a.u.)
  ----------------------------------------
      1 C                    -0.200276
      2 C                     0.062018
      3 Cl                   -0.032625
      4 C                    -0.328002
      5 H                     0.200204
      6 C                     0.574373
      7 C                    -0.301853
      8 S                     0.959213
      9 C                    -0.072794
     10 H                     0.175244
     11 S                     1.182322
     12 O                    -0.575233
     13 O                    -0.584363
     14 N                    -0.864583
     15 H                     0.430767
     16 H                     0.436126
     17 N                    -0.556632
     18 C                     0.111013
     19 N                    -0.295338
     20 O                    -0.525286
     21 O                    -0.539877
     22 H                     0.348764
     23 C                    -0.437940
     24 C                    -0.450660
     25 S                    -0.044467
     26 C                    -0.562332
     27 C                     0.652195
     28 H                     0.173010
     29 H                     0.199209
     30 H                     0.193465
     31 H                     0.222736
     32 H                     0.222515
     33 H                     0.307171
     34 H                     0.311593
     35 H                     0.223945
     36 F                    -0.202844
     37 F                    -0.221219
     38 F                    -0.189558
  ----------------------------------------
  Sum of atomic charges =     0.000000

  Related Dipole Moment =    10.0502 (X  1.5859 Y -0.9773 Z -9.8761)


 Charges (in A.U.) from Merz-Kollman fitting 
 -----------------------------------------------
 Center     Atomic                  MZ       
 Number     Number                  Charge
 -----------------------------------------------
    1          6                   -0.200276
    2          6                    0.062018
    3         17                   -0.032625
    4          6                   -0.328002
    5          1                    0.200204
    6          6                    0.574373
    7          6                   -0.301853
    8         16                    0.959213
    9          6                   -0.072794
   10          1                    0.175244
   11         16                    1.182322
   12          8                   -0.575233
   13          8                   -0.584363
   14          7                   -0.864583
   15          1                    0.430767
   16          1                    0.436126
   17          7                   -0.556632
   18          6                    0.111013
   19          7                   -0.295338
   20          8                   -0.525286
   21          8                   -0.539877
   22          1                    0.348764
   23          6                   -0.437940
   24          6                   -0.450660
   25         16                   -0.044467
   26          6                   -0.562332
   27          6                    0.652195
   28          1                    0.173010
   29          1                    0.199209
   30          1                    0.193465
   31          1                    0.222736
   32          1                    0.222515
   33          1                    0.307171
   34          1                    0.311593
   35          1                    0.223945
   36          9                   -0.202844
   37          9                   -0.221219
   38          9                   -0.189558
 -----------------------------------------------
    3   -2845.7117877108      3.21e-05  
         Merz-Kollman ESP Net Atomic Charges

     Atom                 Charge (a.u.)
  ----------------------------------------
      1 C                    -0.201449
      2 C                     0.062042
      3 Cl                   -0.032227
      4 C                    -0.331758
      5 H                     0.201072
      6 C                     0.575675
      7 C                    -0.300497
      8 S                     0.963486
      9 C                    -0.073123
     10 H                     0.175432
     11 S                     1.184122
     12 O                    -0.575734
     13 O                    -0.584915
     14 N                    -0.865313
     15 H                     0.430907
     16 H                     0.436263
     17 N                    -0.555724
     18 C                     0.107133
     19 N                    -0.293152
     20 O                    -0.527082
     21 O                    -0.541985
     22 H                     0.348384
     23 C                    -0.439670
     24 C                    -0.451814
     25 S                    -0.043225
     26 C                    -0.563618
     27 C                     0.652210
     28 H                     0.174075
     29 H                     0.199653
     30 H                     0.193957
     31 H                     0.223014
     32 H                     0.222978
     33 H                     0.307835
     34 H                     0.312158
     35 H                     0.224232
     36 F                    -0.202700
     37 F                    -0.221087
     38 F                    -0.189555
  ----------------------------------------
  Sum of atomic charges =     0.000000

  Related Dipole Moment =    10.0824 (X  1.5988 Y -0.9764 Z -9.9068)


 Charges (in A.U.) from Merz-Kollman fitting 
 -----------------------------------------------
 Center     Atomic                  MZ       
 Number     Number                  Charge
 -----------------------------------------------
    1          6                   -0.201449
    2          6                    0.062042
    3         17                   -0.032227
    4          6                   -0.331758
    5          1                    0.201072
    6          6                    0.575675
    7          6                   -0.300497
    8         16                    0.963486
    9          6                   -0.073123
   10          1                    0.175432
   11         16                    1.184122
   12          8                   -0.575734
   13          8                   -0.584915
   14          7                   -0.865313
   15          1                    0.430907
   16          1                    0.436263
   17          7                   -0.555724
   18          6                    0.107133
   19          7                   -0.293152
   20          8                   -0.527082
   21          8                   -0.541985
   22          1                    0.348384
   23          6                   -0.439670
   24          6                   -0.451814
   25         16                   -0.043225
   26          6                   -0.563618
   27          6                    0.652210
   28          1                    0.174075
   29          1                    0.199653
   30          1                    0.193957
   31          1                    0.223014
   32          1                    0.222978
   33          1                    0.307835
   34          1                    0.312158
   35          1                    0.224232
   36          9                   -0.202700
   37          9                   -0.221087
   38          9                   -0.189555
 -----------------------------------------------
    4   -2845.7114897175      1.74e-05  
    5   -2845.7113671309      4.25e-06  Convergence criterion met
 ---------------------------------------
 SCF time:   CPU 344.90s  wall 46.00s 
(0)  E-EN(g) gas-phase elect-nuc energy                -2845.722030411 a.u.
(1)  E-EN(liq) elect-nuc energy of solute              -2845.711367131 a.u.
(2)  G-P(liq) polarization free energy of solvation           -35.7816 kcal/mol
(3)  G-ENP(liq) elect-nuc-pol free energy of system    -2845.768388733 a.u.
(4)  G-CDS(liq) cavity-dispersion-solvent structure 
     free energy                                                2.8794 kcal/mol
(5)  G-P-CDS(liq) = G-P(liq) + G-CDS(liq) = (2) + (4)         -32.9022 kcal/mol
(6)  G-S(liq) free energy of system = (1) + (5)        -2845.763800073 a.u.
(7)  DeltaE-EN(liq) elect-nuc reorganization
     energy of solute molecule (7) = (1) - (0)                  6.6913 kcal/mol
(8)  DeltaG-ENP(liq) elect-nuc-pol free energy
     of solvation (8) = (3) - (0)                             -29.0903 kcal/mol
(9)  DeltaG-S(liq) free energy of  solvation
     (9) = (6) - (0)                                          -26.2109 kcal/mol
 SCF   energy in the final basis set =    -2845.7638000726
 Total energy in the final basis set =    -2845.7638000726
 
 --------------------------------------------------------------
 
                    Orbital Energies (a.u.)
 --------------------------------------------------------------
 
 Alpha MOs
 -- Occupied --
******** -90.1839 -90.1797 -89.9430 -25.3111 -25.3089 -25.3085 -19.6665
-19.6639 -19.6597 -19.6595 -14.8245 -14.8160 -14.8123 -10.8194 -10.6636
-10.6605 -10.6558 -10.6197 -10.6186 -10.6164 -10.6102 -10.6005 -10.5968
-10.5917  -9.8432  -8.4969  -8.4950  -8.2913  -7.5675  -7.5608  -7.5604
 -6.4194  -6.4186  -6.4179  -6.4171  -6.4165  -6.4160  -6.2124  -6.2098
 -6.2054  -1.4763  -1.3842  -1.3833  -1.2648  -1.2626  -1.1468  -1.1463
 -1.1231  -1.0585  -1.0438  -1.0288  -0.9786  -0.9491  -0.9141  -0.8953
 -0.8771  -0.8299  -0.8193  -0.7853  -0.7721  -0.7483  -0.7412  -0.7167
 -0.7034  -0.6992  -0.6774  -0.6659  -0.6504  -0.6406  -0.6294  -0.6264
 -0.6142  -0.6010  -0.5858  -0.5841  -0.5827  -0.5740  -0.5615  -0.5516
 -0.5491  -0.5473  -0.5454  -0.5410  -0.5338  -0.5220  -0.5198  -0.5144
 -0.5079  -0.4979  -0.4947  -0.4868  -0.4799  -0.4758  -0.4567  -0.4458
 -0.4425  -0.4363  -0.4290  -0.4231  -0.4158  -0.4143  -0.4086  -0.4060
 -0.3933  -0.3924  -0.3891  -0.3842  -0.3503  -0.3378  -0.3139  -0.2942
 -- Virtual --
 -0.0359  -0.0212  -0.0066   0.0059   0.0215   0.0230   0.0250   0.0352
  0.0379   0.0390   0.0472   0.0521   0.0535   0.0558   0.0585   0.0604
  0.0679   0.0685   0.0701   0.0740   0.0802   0.0820   0.0834   0.0853
  0.0904   0.0929   0.0949   0.0977   0.1014   0.1068   0.1109   0.1132
  0.1145   0.1180   0.1198   0.1251   0.1269   0.1295   0.1323   0.1363
  0.1371   0.1430   0.1465   0.1488   0.1535   0.1546   0.1595   0.1613
  0.1637   0.1660   0.1703   0.1728   0.1739   0.1761   0.1819   0.1870
  0.1907   0.1922   0.2013   0.2019   0.2034   0.2083   0.2093   0.2129
  0.2203   0.2225   0.2250   0.2270   0.2280   0.2331   0.2355   0.2396
  0.2444   0.2503   0.2513   0.2530   0.2542   0.2586   0.2598   0.2615
  0.2667   0.2703   0.2747   0.2790   0.2803   0.2861   0.2905   0.2924
  0.2991   0.3024   0.3052   0.3066   0.3104   0.3116   0.3122   0.3157
  0.3183   0.3238   0.3253   0.3267   0.3329   0.3355   0.3421   0.3429
  0.3460   0.3501   0.3521   0.3557   0.3635   0.3672   0.3722   0.3788
  0.3806   0.3826   0.3856   0.3926   0.3962   0.4013   0.4083   0.4090
  0.4123   0.4165   0.4241   0.4272   0.4309   0.4379   0.4434   0.4522
  0.4614   0.4705   0.4733   0.4834   0.4968   0.5063   0.5132   0.5214
  0.5346   0.5437   0.5545   0.5755   0.5782   0.5855   0.5993   0.6066
  0.6151   0.6189   0.6404   0.6466   0.6491   0.6602   0.6637   0.6711
  0.6840   0.6873   0.6940   0.7038   0.7107   0.7182   0.7228   0.7297
  0.7359   0.7530   0.7593   0.7610   0.7708   0.7751   0.7871   0.7938
  0.8032   0.8140   0.8220   0.8337   0.8429   0.8544   0.8693   0.8772
  0.8837   0.8976   0.9016   0.9118   0.9138   0.9183   0.9392   0.9417
  0.9498   0.9634   0.9777   0.9868   0.9904   1.0020   1.0097   1.0128
  1.0204   1.0236   1.0297   1.0424   1.0473   1.0511   1.0525   1.0549
  1.0612   1.0725   1.0778   1.0930   1.1036   1.1172   1.1249   1.1295
  1.1340   1.1397   1.1424   1.1478   1.1537   1.1598   1.1669   1.1713
  1.1825   1.1973   1.1977   1.2117   1.2191   1.2276   1.2378   1.2448
  1.2506   1.2614   1.2646   1.2735   1.2964   1.3002   1.3232   1.3267
  1.3340   1.3404   1.3432   1.3505   1.3579   1.3683   1.3842   1.3954
  1.3978   1.4074   1.4089   1.4312   1.4383   1.4472   1.4531   1.4716
  1.4799   1.4906   1.4925   1.5087   1.5177   1.5267   1.5357   1.5494
  1.5657   1.5665   1.5749   1.6061   1.6109   1.6214   1.6326   1.6425
  1.6681   1.6722   1.6974   1.7035   1.7183   1.7255   1.7363   1.7382
  1.7552   1.7585   1.7641   1.7718   1.7918   1.8036   1.8079   1.8126
  1.8228   1.8318   1.8385   1.8411   1.8415   1.8522   1.8530   1.8560
  1.8601   1.8723   1.8765   1.8847   1.8877   1.8998   1.9059   1.9203
  1.9256   1.9280   1.9364   1.9517   1.9605   1.9644   1.9915   1.9976
  2.0020   2.0111   2.0176   2.0302   2.0411   2.0507   2.0679   2.0754
  2.0795   2.1013   2.1105   2.1185   2.1198   2.1231   2.1329   2.1418
  2.1463   2.1539   2.1629   2.1699   2.1839   2.1915   2.2042   2.2067
  2.2195   2.2271   2.2397   2.2542   2.2758   2.2875   2.2950   2.3203
  2.3288   2.3547   2.3716   2.3720   2.3908   2.3940   2.4135   2.4365
  2.4636   2.4683   2.4840   2.4994   2.5045   2.5051   2.5370   2.5467
  2.5774   2.6083   2.6392   2.6691   2.7112   2.7531   2.7745   2.7760
  2.7983   2.7990   2.8163   2.8311   2.8778   2.8855   2.9057   2.9168
  2.9363   2.9818   3.0134   3.0381   3.1794   3.2012   3.2074   3.2394
  3.3174   3.9680   4.0023   4.0445   4.0544   4.1105   4.2072   4.2660
  4.2782   4.3062   4.3213   4.3303   4.3552   4.3766   4.4015   4.4339
  4.4461   4.4956   4.5262   4.5395   4.6464   4.6697   4.7418   5.7428
  5.7669   6.5594
 --------------------------------------------------------------
 
          Ground-State Mulliken Net Atomic Charges

     Atom                 Charge (a.u.)
  ----------------------------------------
      1 C                    -3.208836
      2 C                    -0.984928
      3 Cl                    0.074132
      4 C                     0.738936
      5 H                     0.306167
      6 C                     1.909663
      7 C                    -1.360130
      8 S                     1.027175
      9 C                     1.077889
     10 H                     0.306864
     11 S                     1.276852
     12 O                    -0.638718
     13 O                    -0.645434
     14 N                    -1.016545
     15 H                     0.541361
     16 H                     0.539057
     17 N                    -0.239457
     18 C                    -0.711272
     19 N                    -0.595895
     20 O                    -0.698988
     21 O                    -0.571718
     22 H                     0.485019
     23 C                    -0.343888
     24 C                     0.682710
     25 S                     0.330086
     26 C                    -0.400147
     27 C                     0.653756
     28 H                     0.287477
     29 H                     0.302420
     30 H                     0.296167
     31 H                     0.253524
     32 H                     0.313671
     33 H                     0.332522
     34 H                     0.340022
     35 H                     0.330327
     36 F                    -0.330413
     37 F                    -0.341478
     38 F                    -0.317961
  ----------------------------------------
  Sum of atomic charges =    -0.000010

         Merz-Kollman ESP Net Atomic Charges

     Atom                 Charge (a.u.)
  ----------------------------------------
      1 C                    -0.201643
      2 C                     0.062480
      3 Cl                   -0.032340
      4 C                    -0.332114
      5 H                     0.201082
      6 C                     0.576370
      7 C                    -0.301340
      8 S                     0.963335
      9 C                    -0.073202
     10 H                     0.175440
     11 S                     1.185822
     12 O                    -0.576354
     13 O                    -0.585538
     14 N                    -0.865483
     15 H                     0.430845
     16 H                     0.436207
     17 N                    -0.555498
     18 C                     0.106519
     19 N                    -0.293356
     20 O                    -0.526952
     21 O                    -0.541692
     22 H                     0.348277
     23 C                    -0.439762
     24 C                    -0.451384
     25 S                    -0.043239
     26 C                    -0.563781
     27 C                     0.652749
     28 H                     0.174249
     29 H                     0.199695
     30 H                     0.194063
     31 H                     0.223096
     32 H                     0.222917
     33 H                     0.307775
     34 H                     0.312175
     35 H                     0.224279
     36 F                    -0.202821
     37 F                    -0.221217
     38 F                    -0.189660
  ----------------------------------------
  Sum of atomic charges =     0.000000

  Related Dipole Moment =    10.0890 (X  1.6015 Y -0.9805 Z -9.9127)

 -----------------------------------------------------------------
                    Cartesian Multipole Moments
 -----------------------------------------------------------------
    Charge (ESU x 10^10)
                -0.0000
    Dipole Moment (Debye)
         X       1.5579      Y      -1.0151      Z      -9.8832
       Tot      10.0566
    Quadrupole Moments (Debye-Ang)
        XX    -188.5356     XY      15.2026     YY    -187.6852
        XZ      26.3412     YZ      -5.5618     ZZ    -129.5005
    Octopole Moments (Debye-Ang^2)
       XXX     145.3716    XXY      19.3480    XYY      35.1237
       YYY     105.6146    XXZ     551.3540    XYZ     -52.2415
       YYZ     639.8227    XZZ      17.8982    YZZ     105.0639
       ZZZ    1585.8987
    Hexadecapole Moments (Debye-Ang^3)
      XXXX   -3820.8068   XXXY     351.5752   XXYY   -1185.0491
      XYYY     439.8166   YYYY   -3024.4019   XXXZ     897.5565
      XXYZ    -795.1369   XYYZ     534.3035   YYYZ   -2497.2923
      XXZZ   -4251.8460   XYZZ     570.8577   YYZZ   -4697.4922
      XZZZ    1058.9417   YZZZ   -3198.3762   ZZZZ  -23321.3919
 -----------------------------------------------------------------
 Total job time:  99.22s(wall), 750.49s(cpu) 
 Sat Jul  2 00:21:23 2022

        *************************************************************
        *                                                           *
        *  Thank you very much for using Q-Chem.  Have a nice day.  *
        *                                                           *
        *************************************************************


