                  Welcome to Q-Chem
     A Quantum Leap Into The Future Of Chemistry


 Q-Chem 5.4 (devel), Q-Chem, Inc., Pleasanton, CA (2021)

 E. Epifanovsky,  A. T. B. Gilbert,  Xintian Feng,  Joonho Lee,  Yuezhi Mao,  
 N. Mardirossian,  P. Pokhilko,  A. White,  M. Wormit,  M. P. Coons,  
 A. L. Dempwolff,  Zhengting Gan,  D. Hait,  P. R. Horn,  L. D. Jacobson,  
 I. Kaliman,  J. Kussmann,  A. W. Lange,  Ka Un Lao,  D. S. Levine,  Jie Liu,  
 S. C. McKenzie,  A. F. Morrison,  K. Nanda,  F. Plasser,  D. R. Rehn,  
 M. L. Vidal,  Zhi-Qiang You,  Ying Zhu,  B. Alam,  B. Albrecht,  
 A. Aldossary,  E. Alguire,  J. H. Andersen,  D. Barton,  K. Begam,  A. Behn,  
 Y. A. Bernard,  E. J. Berquist,  H. Burton,  A. Carreras,  K. Carter-Fenk,  
 R. Chakraborty,  A. D. Chien,  K. D. Closser,  V. Cofer-Shabica,  
 S. Dasgupta,  Jia Deng,  M. de Wergifosse,  M. Diedenhofen,  Hainam Do,  
 S. Ehlert,  Po-Tung Fang,  S. Fatehi,  Qingguo Feng,  T. Friedhoff,  
 J. Gayvert,  Qinghui Ge,  G. Gidofalvi,  M. Goldey,  J. Gomes,  
 C. Gonzalez-Espinoza,  S. Gulania,  A. Gunina,  M. W. D. Hanson-Heine,  
 P. H. P. Harbach,  A. W. Hauser,  M. F. Herbst,  M. Hernandez Vera,  
 M. Hodecker,  Z. C. Holden,  S. Houck,  Xunkun Huang,  Kerwin Hui,  
 B. C. Huynh,  M. Ivanov,  Hyunjun Ji,  Hanjie Jiang,  B. Kaduk,  S. Kaehler,  
 K. Khistyaev,  Jaehoon Kim,  P. Klunzinger,  Z. Koczor-Benda,  
 Joong Hoon Koh,  D. Kosenkov,  L. Koulias,  T. Kowalczyk,  C. M. Krauter,  
 K. Kue,  A. Kunitsa,  T. Kus,  A. Landau,  K. V. Lawler,  D. Lefrancois,  
 S. Lehtola,  Rain Li,  Yi-Pei Li,  Jiashu Liang,  M. Liebenthal,  
 Hung-Hsuan Lin,  You-Sheng Lin,  Fenglai Liu,  Kuan-Yu Liu,  
 M. Loipersberger,  A. Luenser,  A. Manjanath,  P. Manohar,  E. Mansoor,  
 S. F. Manzer,  Shan-Ping Mao,  A. V. Marenich,  T. Markovich,  S. Mason,  
 S. A. Maurer,  P. F. McLaughlin,  M. F. S. J. Menger,  J.-M. Mewes,  
 S. A. Mewes,  P. Morgante,  J. W. Mullinax,  K. J. Oosterbaan,  G. Paran,  
 Alexander C. Paul,  Suranjan K. Paul,  F. Pavosevic,  Zheng Pei,  S. Prager,  
 E. I. Proynov,  E. Ramos,  B. Rana,  A. E. Rask,  A. Rettig,  R. M. Richard,  
 F. Rob,  E. Rossomme,  T. Scheele,  M. Scheurer,  M. Schneider,  
 N. Sergueev,  S. M. Sharada,  W. Skomorowski,  D. W. Small,  C. J. Stein,  
 Yu-Chuan Su,  E. J. Sundstrom,  Zhen Tao,  J. Thirman,  T. Tsuchimochi,  
 N. M. Tubman,  S. P. Veccham,  O. Vydrov,  J. Wenzel,  J. Witte,  A. Yamada,  
 Kun Yao,  S. Yeganeh,  S. R. Yost,  A. Zech,  Igor Ying Zhang,  Xing Zhang,  
 Yu Zhang,  D. Zuev,  A. Aspuru-Guzik,  A. T. Bell,  N. A. Besley,  
 K. B. Bravaya,  B. R. Brooks,  D. Casanova,  Jeng-Da Chai,  S. Coriani,  
 C. J. Cramer,  A. E. DePrince, III,  R. A. DiStasio Jr.,  A. Dreuw,  
 B. D. Dunietz,  T. R. Furlani,  W. A. Goddard III,  S. Grimme,  
 S. Hammes-Schiffer,  T. Head-Gordon,  W. J. Hehre,  Chao-Ping Hsu,  
 T.-C. Jagau,  Yousung Jung,  A. Klamt,  Jing Kong,  D. S. Lambrecht,  
 WanZhen Liang,  N. J. Mayhall,  C. W. McCurdy,  J. B. Neaton,  
 C. Ochsenfeld,  J. A. Parkhill,  R. Peverati,  V. A. Rassolov,  Yihan Shao,  
 L. V. Slipchenko,  T. Stauch,  R. P. Steele,  J. E. Subotnik,  
 A. J. W. Thom,  A. Tkatchenko,  D. G. Truhlar,  T. Van Voorhis,  
 T. A. Wesolowski,  K. B. Whaley,  H. L. Woodcock III,  P. M. Zimmerman,  
 S. Faraji,  P. M. W. Gill,  M. Head-Gordon,  J. M. Herbert,  A. I. Krylov

 Additional authors for Version 5.4.1: 
 S. Kotaru,  Shaozhi Li,  Xiangyuan Li,  F. Matz,  A. Molle,  Haisheng Ren,  
 Yingli Su,  Hung-Yi Tsai,  C. Utku,  Fang Wang

 Contributors to earlier versions of Q-Chem not listed above: 
 R. D. Adamson,  B. Austin,  R. Baer,  J. Baker,  G. J. O. Beran,  
 K. Brandhorst,  S. T. Brown,  E. F. C. Byrd,  A. K. Chakraborty,  
 G. K. L. Chan,  Chun-Min Chang,  Yunqing Chen,  C.-L. Cheng,  
 Siu Hung Chien,  D. M. Chipman,  D. L. Crittenden,  H. Dachsel,  
 R. J. Doerksen,  A. D. Dutoi,  R. G. Edgar,  J. Fosso-Tande,  
 L. Fusti-Molnar,  D. Ghosh,  A. Ghysels,  A. Golubeva-Zadorozhnaya,  
 J. Gonthier,  M. S. Gordon,  S. R. Gwaltney,  G. Hawkins,  J. E. Herr,  
 A. Heyden,  S. Hirata,  E. G. Hohenstein,  G. Kedziora,  F. J. Keil,  
 C. Kelley,  Jihan Kim,  R. A. King,  R. Z. Khaliullin,  P. P. Korambath,  
 W. Kurlancheek,  A. Laurent,  A. M. Lee,  M. S. Lee,  S. V. Levchenko,  
 Ching Yeh Lin,  D. Liotard,  E. Livshits,  R. C. Lochan,  I. Lotan,  
 L. A. Martinez-Martinez,  P. E. Maslen,  N. Nair,  D. P. O'Neill,  
 D. Neuhauser,  E. Neuscamman,  C. M. Oana,  R. Olivares-Amaya,  R. Olson,  
 T. M. Perrine,  B. Peters,  P. A. Pieniazek,  A. Prociuk,  Y. M. Rhee,  
 J. Ritchie,  M. A. Rohrdanz,  E. Rosta,  N. J. Russ,  H. F. Schaefer III,  
 M. W. Schmidt,  N. E. Schultz,  S. Sharma,  N. Shenvi,  C. D. Sherrill,  
 A. C. Simmonett,  A. Sodt,  T. Stein,  D. Stuck,  K. S. Thanthiriwatte,  
 V. Vanovschi,  L. Vogt,  Tao Wang,  A. Warshel,  M. A. Watson,  
 C. F. Williams,  Q. Wu,  X. Xu,  Jun Yang,  W. Zhang,  Yan Zhao

 Please cite Q-Chem as follows:
 Y. Shao et al., Mol. Phys. 113, 184-215 (2015)
 DOI: 10.1080/00268976.2014.952696

 Q-Chem 5.4.1 for Intel X86 EM64T Linux

 Parts of Q-Chem use Armadillo 9.800.1 (Horizon Scraper).
 http://arma.sourceforge.net/

 Q-Chem begins on Sat Jul  2 21:31:22 2022  

 Host: gadi-cpu-clx-0212.gadi.nci.org.au
0

     Scratch files written to /jobfs/50113808.gadi-pbs/qchem3173698//
 Processing $rem in /apps/qchem/5.4.1/config/preferences:
 Processing $rem in /home/561/yj5695/.qchemrc:
 Symmetry turned off for PCM/SM12/SMD calculation
 Method-specific promolecule density matrix will be built for SM12 calculation

 Checking the input file for inconsistencies... 	...done.

--------------------------------------------------------------
User input:
--------------------------------------------------------------
$molecule
0  1
C -1.5563543333  1.194166938 -1.0416019345
C -2.5219575837  1.6796559191 -1.9329637047
Cl -3.6700338505  2.8912700074 -1.4515238467
C -2.5721192671  1.1961379435 -3.2346167729
H -3.3204006079  1.5783172425 -3.921012374
C -1.6663398458  0.2201634104 -3.6463859818
C -0.7159355568 -0.2749524734 -2.7583208367
C -0.6529161527  0.2277275485 -1.4583416752
S -1.4878961498  1.7610546297  0.6579954604
O -1.0913419431  3.1681092623  0.6549460674
O -2.7406826348  1.3709696317  1.3021197119
N -0.2965413566  0.9369330481  1.419906942
H  0.644898191  1.1538617881  1.087832121
H -0.4608269971 -0.0696499453  1.4972936959
H  0.1082947566 -0.1279801832 -0.7743563354
H -1.7125902899 -0.1639484482 -4.6610260035
C  0.2479603657 -1.3167161031 -3.2352486309
N  0.5994780538 -2.2966415812 -2.3646107886
O  0.7313305577 -1.2698941252 -4.3692261462
N -0.1414363674 -2.576794759 -1.2334917567
C -0.9914768244 -3.7931340642 -1.2911509322
C -1.3416110202 -4.0083490313  0.1929910819
C -0.1662595545 -3.3840835359  0.9103699472
C  0.5260397779 -2.5686759247  0.0070423044
C -2.1764462579 -3.600157189 -2.2148215539
C  1.6482942653 -1.8371661099  0.3754605289
C  2.0663395418 -1.9245958378  1.7103123191
C  1.3812871329 -2.7209043657  2.6281119512
C  0.2570769245 -3.4599145856  2.2277534305
H  1.2375524056 -3.0166375947 -2.712204735
H -0.3641451156 -4.6279509903 -1.6443063929
H -1.4914373492 -5.0639102799  0.4311278558
H -2.2662097902 -3.4680060464  0.4378682295
H -1.850669169 -3.3903216452 -3.2400120784
H -2.8006294575 -2.7697483518 -1.8668472378
H -2.784110106 -4.5103640861 -2.2353652719
H  2.180960652 -1.2205287758 -0.3439797397
H  2.9407059205 -1.3645461479  2.0295067313
H  1.7240102766 -2.7762510713  3.6569487794
H -0.2714812409 -4.0871361173  2.9412775719
$end

$rem
jobtype sp
exchange M062X
basis 6-31+G*
SMX_GAS_PHASE = TRUE
solvent_method sm12
$end

$smx
solvent water
charges mk
$end
--------------------------------------------------------------
 ----------------------------------------------------------------
             Standard Nuclear Orientation (Angstroms)
    I     Atom           X                Y                Z
 ----------------------------------------------------------------
    1      C      -1.5563543333     1.1941669380    -1.0416019345
    2      C      -2.5219575837     1.6796559191    -1.9329637047
    3      Cl     -3.6700338505     2.8912700074    -1.4515238467
    4      C      -2.5721192671     1.1961379435    -3.2346167729
    5      H      -3.3204006079     1.5783172425    -3.9210123740
    6      C      -1.6663398458     0.2201634104    -3.6463859818
    7      C      -0.7159355568    -0.2749524734    -2.7583208367
    8      C      -0.6529161527     0.2277275485    -1.4583416752
    9      S      -1.4878961498     1.7610546297     0.6579954604
   10      O      -1.0913419431     3.1681092623     0.6549460674
   11      O      -2.7406826348     1.3709696317     1.3021197119
   12      N      -0.2965413566     0.9369330481     1.4199069420
   13      H       0.6448981910     1.1538617881     1.0878321210
   14      H      -0.4608269971    -0.0696499453     1.4972936959
   15      H       0.1082947566    -0.1279801832    -0.7743563354
   16      H      -1.7125902899    -0.1639484482    -4.6610260035
   17      C       0.2479603657    -1.3167161031    -3.2352486309
   18      N       0.5994780538    -2.2966415812    -2.3646107886
   19      O       0.7313305577    -1.2698941252    -4.3692261462
   20      N      -0.1414363674    -2.5767947590    -1.2334917567
   21      C      -0.9914768244    -3.7931340642    -1.2911509322
   22      C      -1.3416110202    -4.0083490313     0.1929910819
   23      C      -0.1662595545    -3.3840835359     0.9103699472
   24      C       0.5260397779    -2.5686759247     0.0070423044
   25      C      -2.1764462579    -3.6001571890    -2.2148215539
   26      C       1.6482942653    -1.8371661099     0.3754605289
   27      C       2.0663395418    -1.9245958378     1.7103123191
   28      C       1.3812871329    -2.7209043657     2.6281119512
   29      C       0.2570769245    -3.4599145856     2.2277534305
   30      H       1.2375524056    -3.0166375947    -2.7122047350
   31      H      -0.3641451156    -4.6279509903    -1.6443063929
   32      H      -1.4914373492    -5.0639102799     0.4311278558
   33      H      -2.2662097902    -3.4680060464     0.4378682295
   34      H      -1.8506691690    -3.3903216452    -3.2400120784
   35      H      -2.8006294575    -2.7697483518    -1.8668472378
   36      H      -2.7841101060    -4.5103640861    -2.2353652719
   37      H       2.1809606520    -1.2205287758    -0.3439797397
   38      H       2.9407059205    -1.3645461479     2.0295067313
   39      H       1.7240102766    -2.7762510713     3.6569487794
   40      H      -0.2714812409    -4.0871361173     2.9412775719
 ----------------------------------------------------------------
 Nuclear Repulsion Energy =        2488.25947442 hartrees
 There are       95 alpha and       95 beta electrons
 Requested basis set is 6-31+G(d)
 There are 154 shells and 496 basis functions

 Total QAlloc Memory Limit   2000 MB
 Mega-Array Size       188 MB
 MEM_STATIC part       192 MB
 A cutoff of  1.0D-08 yielded   8021 shell pairs
 There are     88840 function pairs
 Smallest overlap matrix eigenvalue = 4.29E-07

 Q-Chem warning in module stvman/mkSTV.C, line 323:

 Overlap eigenvalue is smaller than square root of threshold
 Use THRESH >= 12 to get rid of this warning

 Linear dependence detected in AO basis
 Tighter screening thresholds may be required for diffuse basis sets
 Use S2THRESH > 14 and THRESH = 14 in case of SCF convergence issues
 Number of orthogonalized atomic orbitals = 493
 Maximum deviation from orthogonality = 1.385E-10

 Scale SEOQF with 1.000000e-01/1.000000e-01/1.000000e-01

 Standard Electronic Orientation quadrupole field applied
 Nucleus-field energy     =     0.0000000150 hartrees
 ================ Generating on-the-fly Promolecule Density  ================
Attempting to make child job directory: /jobfs/50113808.gadi-pbs/qchem3173698//Frg1/
Attempting to make child job directory: /jobfs/50113808.gadi-pbs/qchem3173698//Frg2/
Attempting to make child job directory: /jobfs/50113808.gadi-pbs/qchem3173698//Frg3/
Attempting to make child job directory: /jobfs/50113808.gadi-pbs/qchem3173698//Frg4/
Attempting to make child job directory: /jobfs/50113808.gadi-pbs/qchem3173698//Frg5/
Attempting to make child job directory: /jobfs/50113808.gadi-pbs/qchem3173698//Frg6/
Creating input file /jobfs/50113808.gadi-pbs/qchem3173698/Frg1.input
using default PutDataFrgm: nothing
calling putenv with: QCSCRATCH=/jobfs/50113808.gadi-pbs/qchem3173698/ 
Spawning Job For Fragment 0
Done Job For Fragment 0
calling putenv with: QCSCRATCH=/jobfs/50113808.gadi-pbs 
calling putenv with: QCTHREADS=8 
Creating input file /jobfs/50113808.gadi-pbs/qchem3173698/Frg2.input
using default PutDataFrgm: nothing
calling putenv with: QCSCRATCH=/jobfs/50113808.gadi-pbs/qchem3173698/ 
Spawning Job For Fragment 1
Done Job For Fragment 1
calling putenv with: QCSCRATCH=/jobfs/50113808.gadi-pbs 
calling putenv with: QCTHREADS=8 
Creating input file /jobfs/50113808.gadi-pbs/qchem3173698/Frg3.input
using default PutDataFrgm: nothing
calling putenv with: QCSCRATCH=/jobfs/50113808.gadi-pbs/qchem3173698/ 
Spawning Job For Fragment 2
Done Job For Fragment 2
calling putenv with: QCSCRATCH=/jobfs/50113808.gadi-pbs 
calling putenv with: QCTHREADS=8 
Creating input file /jobfs/50113808.gadi-pbs/qchem3173698/Frg4.input
using default PutDataFrgm: nothing
calling putenv with: QCSCRATCH=/jobfs/50113808.gadi-pbs/qchem3173698/ 
Spawning Job For Fragment 3
Done Job For Fragment 3
calling putenv with: QCSCRATCH=/jobfs/50113808.gadi-pbs 
calling putenv with: QCTHREADS=8 
Creating input file /jobfs/50113808.gadi-pbs/qchem3173698/Frg5.input
using default PutDataFrgm: nothing
calling putenv with: QCSCRATCH=/jobfs/50113808.gadi-pbs/qchem3173698/ 
Spawning Job For Fragment 4
Done Job For Fragment 4
calling putenv with: QCSCRATCH=/jobfs/50113808.gadi-pbs 
calling putenv with: QCTHREADS=8 
Creating input file /jobfs/50113808.gadi-pbs/qchem3173698/Frg6.input
using default PutDataFrgm: nothing
calling putenv with: QCSCRATCH=/jobfs/50113808.gadi-pbs/qchem3173698/ 
Spawning Job For Fragment 5
Done Job For Fragment 5
calling putenv with: QCSCRATCH=/jobfs/50113808.gadi-pbs 
calling putenv with: QCTHREADS=8 
 Time for running child jobs:  CPU 0.77 s  wall 2.52 s
 ============= Method Specific Promolecule Density Constructed =============
 Guess from superposition of atomic densities
 Warning:  Energy on first SCF cycle will be non-variational
 SAD guess density has 190.000000 electrons

 -----------------------------------------------------------------------
  General SCF calculation program by
  Eric Jon Sundstrom, Paul Horn, Yuezhi Mao, Dmitri Zuev, Alec White,
  David Stuck, Shaama M.S., Shane Yost, Joonho Lee, David Small,
  Daniel Levine, Susi Lehtola, Hugh Burton, Evgeny Epifanovsky,
  Bang C. Huynh
 -----------------------------------------------------------------------
 Exchange:     0.5400 Hartree-Fock + 1.0000 M06-2X
 Correlation:  1.0000 M06-2X
 Using SG-3 standard quadrature grid
 using 8 threads for integral computing
 -------------------------------------------------------
 OpenMP Integral computing Module                
 Release: version 1.0, May 2013, Q-Chem Inc. Pittsburgh 
 -------------------------------------------------------
 A restricted SCF calculation will be
 performed using DIIS
 SCF converges when DIIS error is below 1.0e-05
 ---------------------------------------
  Cycle       Energy         DIIS error
 ---------------------------------------
    1   -1874.9396997339      3.41e-02  
    2   -1866.7019486342      3.87e-03  
    3   -1866.3156682996      5.81e-03  
    4   -1867.0915543499      7.65e-04  
    5   -1867.1055357420      3.34e-04  
    6   -1867.1083471123      1.07e-04  
    7   -1867.1086474931      3.17e-05  
    8   -1867.1086769378      9.60e-06  Convergence criterion met
 ---------------------------------------
 SCF time:   CPU 434.12s  wall 54.00s 
 SCF   energy in the final basis set =    -1867.1086769378
 Total energy in the final basis set =    -1867.1086769378
 Exchange:     0.5400 Hartree-Fock + 1.0000 M06-2X
 Correlation:  1.0000 M06-2X
 Using SG-3 standard quadrature grid
 
 SM12 calculation using Merz-Singh-Kollman charges
 Citation of the SM12 model:
 Marenich, A.V.; Cramer, C.J.; Truhlar, D.G.
 J. Chem. Theory Comput. 2013, 9, 609-612.
 iSolventCode=           1
 Solvent: water                                                           
 
  Building new vdw surfaces
         Merz-Kollman ESP Net Atomic Charges

     Atom                 Charge (a.u.)
  ----------------------------------------
      1 C                     0.001941
      2 C                    -0.164665
      3 Cl                   -0.002324
      4 C                     0.088777
      5 H                     0.117620
      6 C                    -0.375587
      7 C                     0.317167
      8 C                    -0.311556
      9 S                     1.174711
     10 O                    -0.528903
     11 O                    -0.535635
     12 N                    -0.889550
     13 H                     0.403402
     14 H                     0.413233
     15 H                     0.122591
     16 H                     0.209802
     17 C                     0.496756
     18 N                    -0.458758
     19 O                    -0.549416
     20 N                    -0.226956
     21 C                     0.423904
     22 C                    -0.497992
     23 C                     0.026253
     24 C                     0.279054
     25 C                    -0.747654
     26 C                    -0.346218
     27 C                    -0.074851
     28 C                    -0.279086
     29 C                    -0.135055
     30 H                     0.353954
     31 H                     0.037504
     32 H                     0.176295
     33 H                     0.187303
     34 H                     0.205088
     35 H                     0.205323
     36 H                     0.202225
     37 H                     0.186824
     38 H                     0.148285
     39 H                     0.180319
     40 H                     0.165875
  ----------------------------------------
  Sum of atomic charges =     0.000000

  Related Dipole Moment =     8.0126 (X  1.7679 Y -7.7990 Z -0.5009)


 Charges (in A.U.) from Merz-Kollman fitting 
 -----------------------------------------------
 Center     Atomic                  MZ       
 Number     Number                  Charge
 -----------------------------------------------
    1          6                    0.001941
    2          6                   -0.164665
    3         17                   -0.002324
    4          6                    0.088777
    5          1                    0.117620
    6          6                   -0.375587
    7          6                    0.317167
    8          6                   -0.311556
    9         16                    1.174711
   10          8                   -0.528903
   11          8                   -0.535635
   12          7                   -0.889550
   13          1                    0.403402
   14          1                    0.413233
   15          1                    0.122591
   16          1                    0.209802
   17          6                    0.496756
   18          7                   -0.458758
   19          8                   -0.549416
   20          7                   -0.226956
   21          6                    0.423904
   22          6                   -0.497992
   23          6                    0.026253
   24          6                    0.279054
   25          6                   -0.747654
   26          6                   -0.346218
   27          6                   -0.074851
   28          6                   -0.279086
   29          6                   -0.135055
   30          1                    0.353954
   31          1                    0.037504
   32          1                    0.176295
   33          1                    0.187303
   34          1                    0.205088
   35          1                    0.205323
   36          1                    0.202225
   37          1                    0.186824
   38          1                    0.148285
   39          1                    0.180319
   40          1                    0.165875
 -----------------------------------------------
 A restricted SCF calculation will be
 performed using Roothaan-Hall, DIIS
 SCF converges when DIIS error is below 1.0e-05
 ---------------------------------------
  Cycle       Energy         DIIS error
 ---------------------------------------
         Merz-Kollman ESP Net Atomic Charges

     Atom                 Charge (a.u.)
  ----------------------------------------
      1 C                    -0.038095
      2 C                    -0.154583
      3 Cl                   -0.032520
      4 C                     0.067275
      5 H                     0.137604
      6 C                    -0.354581
      7 C                     0.335309
      8 C                    -0.282355
      9 S                     1.232903
     10 O                    -0.592860
     11 O                    -0.595715
     12 N                    -0.881322
     13 H                     0.424244
     14 H                     0.430114
     15 H                     0.129414
     16 H                     0.215925
     17 C                     0.539338
     18 N                    -0.430876
     19 O                    -0.644267
     20 N                    -0.234442
     21 C                     0.441140
     22 C                    -0.498381
     23 C                     0.020259
     24 C                     0.306022
     25 C                    -0.733027
     26 C                    -0.345700
     27 C                    -0.082350
     28 C                    -0.314176
     29 C                    -0.157203
     30 H                     0.368714
     31 H                     0.038221
     32 H                     0.182238
     33 H                     0.187679
     34 H                     0.197537
     35 H                     0.196745
     36 H                     0.202153
     37 H                     0.195515
     38 H                     0.156842
     39 H                     0.189332
     40 H                     0.177931
  ----------------------------------------
  Sum of atomic charges =     0.000000

  Related Dipole Moment =     9.8484 (X  2.5881 Y -9.4622 Z -0.8720)


 Charges (in A.U.) from Merz-Kollman fitting 
 -----------------------------------------------
 Center     Atomic                  MZ       
 Number     Number                  Charge
 -----------------------------------------------
    1          6                   -0.038095
    2          6                   -0.154583
    3         17                   -0.032520
    4          6                    0.067275
    5          1                    0.137604
    6          6                   -0.354581
    7          6                    0.335309
    8          6                   -0.282355
    9         16                    1.232903
   10          8                   -0.592860
   11          8                   -0.595715
   12          7                   -0.881322
   13          1                    0.424244
   14          1                    0.430114
   15          1                    0.129414
   16          1                    0.215925
   17          6                    0.539338
   18          7                   -0.430876
   19          8                   -0.644267
   20          7                   -0.234442
   21          6                    0.441140
   22          6                   -0.498381
   23          6                    0.020259
   24          6                    0.306022
   25          6                   -0.733027
   26          6                   -0.345700
   27          6                   -0.082350
   28          6                   -0.314176
   29          6                   -0.157203
   30          1                    0.368714
   31          1                    0.038221
   32          1                    0.182238
   33          1                    0.187679
   34          1                    0.197537
   35          1                    0.196745
   36          1                    0.202153
   37          1                    0.195515
   38          1                    0.156842
   39          1                    0.189332
   40          1                    0.177931
 -----------------------------------------------
    1   -1867.1086802239      3.06e-04  Roothaan Step
 ---------------------------------------
  Cycle       Energy         DIIS error
 ---------------------------------------
         Merz-Kollman ESP Net Atomic Charges

     Atom                 Charge (a.u.)
  ----------------------------------------
      1 C                    -0.049259
      2 C                    -0.102624
      3 Cl                   -0.038637
      4 C                     0.042057
      5 H                     0.143025
      6 C                    -0.346546
      7 C                     0.322380
      8 C                    -0.309673
      9 S                     1.220875
     10 O                    -0.568978
     11 O                    -0.575299
     12 N                    -0.903693
     13 H                     0.424407
     14 H                     0.428463
     15 H                     0.129198
     16 H                     0.219729
     17 C                     0.493309
     18 N                    -0.464834
     19 O                    -0.577842
     20 N                    -0.272107
     21 C                     0.421120
     22 C                    -0.499380
     23 C                     0.020836
     24 C                     0.297738
     25 C                    -0.719319
     26 C                    -0.355538
     27 C                    -0.071561
     28 C                    -0.285413
     29 C                    -0.141091
     30 H                     0.385029
     31 H                     0.049929
     32 H                     0.187787
     33 H                     0.192584
     34 H                     0.196327
     35 H                     0.193110
     36 H                     0.205785
     37 H                     0.198681
     38 H                     0.153812
     39 H                     0.181287
     40 H                     0.174326
  ----------------------------------------
  Sum of atomic charges =     0.000000

  Related Dipole Moment =     9.5676 (X  2.3438 Y -9.2407 Z -0.8091)


 Charges (in A.U.) from Merz-Kollman fitting 
 -----------------------------------------------
 Center     Atomic                  MZ       
 Number     Number                  Charge
 -----------------------------------------------
    1          6                   -0.049259
    2          6                   -0.102624
    3         17                   -0.038637
    4          6                    0.042057
    5          1                    0.143025
    6          6                   -0.346546
    7          6                    0.322380
    8          6                   -0.309673
    9         16                    1.220875
   10          8                   -0.568978
   11          8                   -0.575299
   12          7                   -0.903693
   13          1                    0.424407
   14          1                    0.428463
   15          1                    0.129198
   16          1                    0.219729
   17          6                    0.493309
   18          7                   -0.464834
   19          8                   -0.577842
   20          7                   -0.272107
   21          6                    0.421120
   22          6                   -0.499380
   23          6                    0.020836
   24          6                    0.297738
   25          6                   -0.719319
   26          6                   -0.355538
   27          6                   -0.071561
   28          6                   -0.285413
   29          6                   -0.141091
   30          1                    0.385029
   31          1                    0.049929
   32          1                    0.187787
   33          1                    0.192584
   34          1                    0.196327
   35          1                    0.193110
   36          1                    0.205785
   37          1                    0.198681
   38          1                    0.153812
   39          1                    0.181287
   40          1                    0.174326
 -----------------------------------------------
    1   -1867.0983688781      2.83e-04  
         Merz-Kollman ESP Net Atomic Charges

     Atom                 Charge (a.u.)
  ----------------------------------------
      1 C                    -0.045560
      2 C                    -0.131533
      3 Cl                   -0.036036
      4 C                     0.047621
      5 H                     0.142403
      6 C                    -0.349136
      7 C                     0.334578
      8 C                    -0.294591
      9 S                     1.248785
     10 O                    -0.590946
     11 O                    -0.594831
     12 N                    -0.895878
     13 H                     0.424592
     14 H                     0.430864
     15 H                     0.127179
     16 H                     0.218612
     17 C                     0.526008
     18 N                    -0.443075
     19 O                    -0.628859
     20 N                    -0.240787
     21 C                     0.425811
     22 C                    -0.501476
     23 C                     0.022233
     24 C                     0.298967
     25 C                    -0.723986
     26 C                    -0.349636
     27 C                    -0.078970
     28 C                    -0.299922
     29 C                    -0.152371
     30 H                     0.376461
     31 H                     0.044578
     32 H                     0.186222
     33 H                     0.191642
     34 H                     0.195862
     35 H                     0.194947
     36 H                     0.204120
     37 H                     0.197398
     38 H                     0.156181
     39 H                     0.185292
     40 H                     0.177235
  ----------------------------------------
  Sum of atomic charges =     0.000000

  Related Dipole Moment =     9.8681 (X  2.4952 Y -9.5156 Z -0.7785)


 Charges (in A.U.) from Merz-Kollman fitting 
 -----------------------------------------------
 Center     Atomic                  MZ       
 Number     Number                  Charge
 -----------------------------------------------
    1          6                   -0.045560
    2          6                   -0.131533
    3         17                   -0.036036
    4          6                    0.047621
    5          1                    0.142403
    6          6                   -0.349136
    7          6                    0.334578
    8          6                   -0.294591
    9         16                    1.248785
   10          8                   -0.590946
   11          8                   -0.594831
   12          7                   -0.895878
   13          1                    0.424592
   14          1                    0.430864
   15          1                    0.127179
   16          1                    0.218612
   17          6                    0.526008
   18          7                   -0.443075
   19          8                   -0.628859
   20          7                   -0.240787
   21          6                    0.425811
   22          6                   -0.501476
   23          6                    0.022233
   24          6                    0.298967
   25          6                   -0.723986
   26          6                   -0.349636
   27          6                   -0.078970
   28          6                   -0.299922
   29          6                   -0.152371
   30          1                    0.376461
   31          1                    0.044578
   32          1                    0.186222
   33          1                    0.191642
   34          1                    0.195862
   35          1                    0.194947
   36          1                    0.204120
   37          1                    0.197398
   38          1                    0.156181
   39          1                    0.185292
   40          1                    0.177235
 -----------------------------------------------
    2   -1867.1013468616      3.98e-04  
         Merz-Kollman ESP Net Atomic Charges

     Atom                 Charge (a.u.)
  ----------------------------------------
      1 C                    -0.049591
      2 C                    -0.128757
      3 Cl                   -0.037955
      4 C                     0.049519
      5 H                     0.142433
      6 C                    -0.346342
      7 C                     0.334126
      8 C                    -0.292231
      9 S                     1.245492
     10 O                    -0.591238
     11 O                    -0.595412
     12 N                    -0.893908
     13 H                     0.425098
     14 H                     0.431024
     15 H                     0.126848
     16 H                     0.218474
     17 C                     0.521396
     18 N                    -0.443320
     19 O                    -0.625750
     20 N                    -0.248169
     21 C                     0.428160
     22 C                    -0.500877
     23 C                     0.021947
     24 C                     0.300834
     25 C                    -0.722544
     26 C                    -0.349137
     27 C                    -0.078985
     28 C                    -0.301248
     29 C                    -0.152679
     30 H                     0.377934
     31 H                     0.044843
     32 H                     0.186516
     33 H                     0.191790
     34 H                     0.195335
     35 H                     0.194004
     36 H                     0.204351
     37 H                     0.197882
     38 H                     0.156653
     39 H                     0.185763
     40 H                     0.177723
  ----------------------------------------
  Sum of atomic charges =     0.000000

  Related Dipole Moment =     9.9290 (X  2.5186 Y -9.5676 Z -0.8377)


 Charges (in A.U.) from Merz-Kollman fitting 
 -----------------------------------------------
 Center     Atomic                  MZ       
 Number     Number                  Charge
 -----------------------------------------------
    1          6                   -0.049591
    2          6                   -0.128757
    3         17                   -0.037955
    4          6                    0.049519
    5          1                    0.142433
    6          6                   -0.346342
    7          6                    0.334126
    8          6                   -0.292231
    9         16                    1.245492
   10          8                   -0.591238
   11          8                   -0.595412
   12          7                   -0.893908
   13          1                    0.425098
   14          1                    0.431024
   15          1                    0.126848
   16          1                    0.218474
   17          6                    0.521396
   18          7                   -0.443320
   19          8                   -0.625750
   20          7                   -0.248169
   21          6                    0.428160
   22          6                   -0.500877
   23          6                    0.021947
   24          6                    0.300834
   25          6                   -0.722544
   26          6                   -0.349137
   27          6                   -0.078985
   28          6                   -0.301248
   29          6                   -0.152679
   30          1                    0.377934
   31          1                    0.044843
   32          1                    0.186516
   33          1                    0.191790
   34          1                    0.195335
   35          1                    0.194004
   36          1                    0.204351
   37          1                    0.197882
   38          1                    0.156653
   39          1                    0.185763
   40          1                    0.177723
 -----------------------------------------------
    3   -1867.1010869469      3.17e-05  
         Merz-Kollman ESP Net Atomic Charges

     Atom                 Charge (a.u.)
  ----------------------------------------
      1 C                    -0.049389
      2 C                    -0.127496
      3 Cl                   -0.038306
      4 C                     0.046738
      5 H                     0.143145
      6 C                    -0.346590
      7 C                     0.335138
      8 C                    -0.293282
      9 S                     1.245913
     10 O                    -0.590899
     11 O                    -0.595126
     12 N                    -0.895683
     13 H                     0.425400
     14 H                     0.431452
     15 H                     0.127203
     16 H                     0.218911
     17 C                     0.522273
     18 N                    -0.442386
     19 O                    -0.627796
     20 N                    -0.246689
     21 C                     0.426748
     22 C                    -0.501618
     23 C                     0.021942
     24 C                     0.300434
     25 C                    -0.722116
     26 C                    -0.350129
     27 C                    -0.079008
     28 C                    -0.300284
     29 C                    -0.152534
     30 H                     0.377970
     31 H                     0.045223
     32 H                     0.186917
     33 H                     0.192169
     34 H                     0.195228
     35 H                     0.193962
     36 H                     0.204484
     37 H                     0.198132
     38 H                     0.156715
     39 H                     0.185500
     40 H                     0.177735
  ----------------------------------------
  Sum of atomic charges =     0.000000

  Related Dipole Moment =     9.9436 (X  2.5169 Y -9.5852 Z -0.8146)


 Charges (in A.U.) from Merz-Kollman fitting 
 -----------------------------------------------
 Center     Atomic                  MZ       
 Number     Number                  Charge
 -----------------------------------------------
    1          6                   -0.049389
    2          6                   -0.127496
    3         17                   -0.038306
    4          6                    0.046738
    5          1                    0.143145
    6          6                   -0.346590
    7          6                    0.335138
    8          6                   -0.293282
    9         16                    1.245913
   10          8                   -0.590899
   11          8                   -0.595126
   12          7                   -0.895683
   13          1                    0.425400
   14          1                    0.431452
   15          1                    0.127203
   16          1                    0.218911
   17          6                    0.522273
   18          7                   -0.442386
   19          8                   -0.627796
   20          7                   -0.246689
   21          6                    0.426748
   22          6                   -0.501618
   23          6                    0.021942
   24          6                    0.300434
   25          6                   -0.722116
   26          6                   -0.350129
   27          6                   -0.079008
   28          6                   -0.300284
   29          6                   -0.152534
   30          1                    0.377970
   31          1                    0.045223
   32          1                    0.186917
   33          1                    0.192169
   34          1                    0.195228
   35          1                    0.193962
   36          1                    0.204484
   37          1                    0.198132
   38          1                    0.156715
   39          1                    0.185500
   40          1                    0.177735
 -----------------------------------------------
    4   -1867.1008779803      1.59e-05  
    5   -1867.1007937057      4.73e-06  Convergence criterion met
 ---------------------------------------
 SCF time:   CPU 370.02s  wall 49.00s 
(0)  E-EN(g) gas-phase elect-nuc energy                -1867.108676938 a.u.
(1)  E-EN(liq) elect-nuc energy of solute              -1867.100793706 a.u.
(2)  G-P(liq) polarization free energy of solvation           -28.8959 kcal/mol
(3)  G-ENP(liq) elect-nuc-pol free energy of system    -1867.146842306 a.u.
(4)  G-CDS(liq) cavity-dispersion-solvent structure 
     free energy                                                2.9268 kcal/mol
(5)  G-P-CDS(liq) = G-P(liq) + G-CDS(liq) = (2) + (4)         -25.9692 kcal/mol
(6)  G-S(liq) free energy of system = (1) + (5)        -1867.142178183 a.u.
(7)  DeltaE-EN(liq) elect-nuc reorganization
     energy of solute molecule (7) = (1) - (0)                  4.9468 kcal/mol
(8)  DeltaG-ENP(liq) elect-nuc-pol free energy
     of solvation (8) = (3) - (0)                             -23.9491 kcal/mol
(9)  DeltaG-S(liq) free energy of  solvation
     (9) = (6) - (0)                                          -21.0223 kcal/mol
 SCF   energy in the final basis set =    -1867.1421781834
 Total energy in the final basis set =    -1867.1421781834
 
 --------------------------------------------------------------
 
                    Orbital Energies (a.u.)
 --------------------------------------------------------------
 
 Alpha MOs
 -- Occupied --
******** -90.1834 -19.6607 -19.6603 -19.6391 -14.8376 -14.8227 -14.8123
-10.6854 -10.6554 -10.6211 -10.6018 -10.5983 -10.5969 -10.5963 -10.5919
-10.5910 -10.5663 -10.5650 -10.5642 -10.5641 -10.5595 -10.5576 -10.5408
 -9.8405  -8.4964  -7.5650  -7.5580  -7.5578  -6.4189  -6.4181  -6.4174
 -1.2629  -1.1941  -1.1474  -1.1421  -1.0434  -1.0302  -1.0100  -0.9713
 -0.9492  -0.9016  -0.8905  -0.8733  -0.8595  -0.8325  -0.7830  -0.7803
 -0.7522  -0.7289  -0.7106  -0.6919  -0.6869  -0.6792  -0.6434  -0.6263
 -0.6247  -0.6128  -0.5899  -0.5858  -0.5772  -0.5650  -0.5617  -0.5456
 -0.5399  -0.5339  -0.5288  -0.5184  -0.5099  -0.5052  -0.4942  -0.4867
 -0.4763  -0.4743  -0.4619  -0.4513  -0.4494  -0.4415  -0.4360  -0.4312
 -0.4262  -0.4234  -0.4118  -0.4110  -0.4045  -0.4009  -0.3927  -0.3867
 -0.3760  -0.3630  -0.3442  -0.3434  -0.3252  -0.3141  -0.2709
 -- Virtual --
 -0.0396  -0.0203   0.0005   0.0070   0.0165   0.0192   0.0226   0.0227
  0.0284   0.0332   0.0407   0.0424   0.0445   0.0475   0.0507   0.0552
  0.0584   0.0651   0.0685   0.0703   0.0719   0.0777   0.0798   0.0852
  0.0887   0.0932   0.0962   0.1010   0.1022   0.1051   0.1083   0.1118
  0.1183   0.1209   0.1235   0.1269   0.1302   0.1335   0.1375   0.1402
  0.1427   0.1475   0.1503   0.1548   0.1586   0.1592   0.1632   0.1662
  0.1703   0.1757   0.1784   0.1785   0.1835   0.1871   0.1909   0.1938
  0.1968   0.2001   0.2026   0.2047   0.2074   0.2103   0.2114   0.2143
  0.2152   0.2170   0.2235   0.2260   0.2279   0.2318   0.2334   0.2375
  0.2389   0.2422   0.2455   0.2470   0.2487   0.2550   0.2579   0.2611
  0.2640   0.2650   0.2720   0.2742   0.2789   0.2805   0.2843   0.2876
  0.2889   0.2899   0.2944   0.2995   0.3020   0.3066   0.3095   0.3135
  0.3154   0.3170   0.3200   0.3232   0.3262   0.3327   0.3377   0.3410
  0.3452   0.3537   0.3547   0.3564   0.3611   0.3642   0.3657   0.3688
  0.3752   0.3778   0.3799   0.3832   0.3928   0.3962   0.4015   0.4035
  0.4046   0.4138   0.4273   0.4323   0.4334   0.4498   0.4513   0.4583
  0.4633   0.4724   0.4743   0.4828   0.4903   0.4989   0.5118   0.5249
  0.5326   0.5455   0.5656   0.5790   0.5994   0.6282   0.6312   0.6475
  0.6536   0.6657   0.6683   0.6787   0.6878   0.7051   0.7134   0.7186
  0.7222   0.7321   0.7384   0.7484   0.7499   0.7534   0.7578   0.7719
  0.7783   0.7887   0.7927   0.7983   0.8010   0.8085   0.8138   0.8216
  0.8254   0.8370   0.8439   0.8463   0.8561   0.8619   0.8714   0.8789
  0.8926   0.9003   0.9134   0.9157   0.9278   0.9342   0.9408   0.9417
  0.9545   0.9666   0.9739   0.9759   0.9865   0.9970   0.9996   1.0065
  1.0144   1.0276   1.0323   1.0343   1.0466   1.0478   1.0499   1.0520
  1.0688   1.0789   1.0862   1.0893   1.1040   1.1049   1.1090   1.1259
  1.1315   1.1366   1.1405   1.1475   1.1527   1.1581   1.1637   1.1730
  1.1786   1.1818   1.1917   1.1987   1.2077   1.2212   1.2293   1.2332
  1.2433   1.2527   1.2669   1.2730   1.2836   1.3010   1.3044   1.3096
  1.3166   1.3237   1.3315   1.3438   1.3486   1.3644   1.3738   1.3800
  1.3917   1.3937   1.3981   1.4067   1.4246   1.4264   1.4338   1.4413
  1.4478   1.4649   1.4768   1.4782   1.4893   1.4949   1.5087   1.5177
  1.5212   1.5238   1.5271   1.5349   1.5468   1.5520   1.5640   1.5698
  1.5759   1.5902   1.6147   1.6379   1.6440   1.6789   1.7092   1.7384
  1.7646   1.7903   1.7953   1.7970   1.8078   1.8299   1.8401   1.8460
  1.8522   1.8538   1.8542   1.8637   1.8840   1.8926   1.9023   1.9151
  1.9189   1.9329   1.9383   1.9494   1.9656   1.9715   1.9810   1.9999
  2.0054   2.0061   2.0181   2.0293   2.0323   2.0542   2.0564   2.0728
  2.0911   2.1099   2.1159   2.1223   2.1300   2.1447   2.1595   2.1693
  2.1803   2.1835   2.1930   2.1975   2.2056   2.2224   2.2308   2.2376
  2.2470   2.2509   2.2619   2.2854   2.2955   2.3037   2.3183   2.3220
  2.3310   2.3431   2.3713   2.3925   2.3980   2.4104   2.4278   2.4403
  2.4643   2.4725   2.4876   2.5080   2.5261   2.5692   2.5867   2.6050
  2.6297   2.6346   2.6479   2.6541   2.6707   2.6896   2.6984   2.7184
  2.7276   2.7479   2.7621   2.7702   2.7934   2.8031   2.8390   2.8522
  2.8814   2.9038   2.9233   2.9256   2.9363   2.9840   3.0139   3.0359
  3.1691   3.1769   3.2309   3.2711   3.3727   3.4348   4.0116   4.0591
  4.1545   4.2371   4.2728   4.3306   4.3401   4.3466   4.3667   4.3819
  4.4029   4.4255   4.4454   4.4541   4.4714   4.4948   4.5216   4.5410
  4.5527   4.5752   4.6844   4.7589   4.7961   4.8124
 --------------------------------------------------------------
 
          Ground-State Mulliken Net Atomic Charges

     Atom                 Charge (a.u.)
  ----------------------------------------
      1 C                    -2.205627
      2 C                    -0.614526
      3 Cl                    0.048236
      4 C                     0.752220
      5 H                     0.290661
      6 C                    -0.016360
      7 C                     0.569083
      8 C                     0.636485
      9 S                     1.020078
     10 O                    -0.669758
     11 O                    -0.671354
     12 N                    -1.027232
     13 H                     0.547885
     14 H                     0.554294
     15 H                     0.282623
     16 H                     0.296970
     17 C                     0.542901
     18 N                    -0.428369
     19 O                    -0.725439
     20 N                     0.108741
     21 C                     0.433678
     22 C                    -0.334758
     23 C                     1.479411
     24 C                    -0.573089
     25 C                    -0.741481
     26 C                    -0.174552
     27 C                    -0.423368
     28 C                    -0.612580
     29 C                    -1.352889
     30 H                     0.500000
     31 H                     0.243328
     32 H                     0.266503
     33 H                     0.260914
     34 H                     0.236570
     35 H                     0.235241
     36 H                     0.242247
     37 H                     0.284022
     38 H                     0.249990
     39 H                     0.235716
     40 H                     0.253584
  ----------------------------------------
  Sum of atomic charges =     0.000000

         Merz-Kollman ESP Net Atomic Charges

     Atom                 Charge (a.u.)
  ----------------------------------------
      1 C                    -0.049590
      2 C                    -0.127628
      3 Cl                   -0.038236
      4 C                     0.046669
      5 H                     0.143136
      6 C                    -0.346425
      7 C                     0.335187
      8 C                    -0.293449
      9 S                     1.247885
     10 O                    -0.591613
     11 O                    -0.595804
     12 N                    -0.895786
     13 H                     0.425287
     14 H                     0.431427
     15 H                     0.127109
     16 H                     0.218932
     17 C                     0.522027
     18 N                    -0.442528
     19 O                    -0.627688
     20 N                    -0.246427
     21 C                     0.426378
     22 C                    -0.501756
     23 C                     0.022232
     24 C                     0.300062
     25 C                    -0.722058
     26 C                    -0.349896
     27 C                    -0.078967
     28 C                    -0.300115
     29 C                    -0.152670
     30 H                     0.378041
     31 H                     0.045315
     32 H                     0.186984
     33 H                     0.192274
     34 H                     0.195207
     35 H                     0.193979
     36 H                     0.204547
     37 H                     0.198075
     38 H                     0.156690
     39 H                     0.185444
     40 H                     0.177749
  ----------------------------------------
  Sum of atomic charges =     0.000000

  Related Dipole Moment =     9.9465 (X  2.5169 Y -9.5883 Z -0.8127)

 -----------------------------------------------------------------
                    Cartesian Multipole Moments
 -----------------------------------------------------------------
    Charge (ESU x 10^10)
                 0.0000
    Dipole Moment (Debye)
         X       2.4662      Y      -9.4673      Z      -0.8357
       Tot       9.8188
    Quadrupole Moments (Debye-Ang)
        XX    -159.0116     XY      16.3517     YY    -151.3755
        XZ      21.2885     YZ      -7.4549     ZZ    -164.5369
    Octopole Moments (Debye-Ang^2)
       XXX     431.7886    XXY      69.2304    XYY     120.4988
       YYY     125.8293    XXZ      77.5039    XYZ      13.5911
       YYZ      81.5283    XZZ      79.4604    YZZ      90.2039
       ZZZ     406.6118
    Hexadecapole Moments (Debye-Ang^3)
      XXXX   -3158.9730   XXXY     758.5449   XXYY   -1413.3221
      XYYY     917.6077   YYYY   -5294.2096   XXXZ    -574.2019
      XXYZ     -24.2268   XYYZ    -230.0571   YYYZ      63.1231
      XXZZ   -1103.8150   XYZZ     239.2724   YYZZ   -1510.0320
      XZZZ    -318.5289   YZZZ    -241.2622   ZZZZ   -4372.5952
 -----------------------------------------------------------------
 Total job time:  106.76s(wall), 812.05s(cpu) 
 Sat Jul  2 21:33:09 2022

        *************************************************************
        *                                                           *
        *  Thank you very much for using Q-Chem.  Have a nice day.  *
        *                                                           *
        *************************************************************


