                  Welcome to Q-Chem
     A Quantum Leap Into The Future Of Chemistry


 Q-Chem 5.4 (devel), Q-Chem, Inc., Pleasanton, CA (2021)

 E. Epifanovsky,  A. T. B. Gilbert,  Xintian Feng,  Joonho Lee,  Yuezhi Mao,  
 N. Mardirossian,  P. Pokhilko,  A. White,  M. Wormit,  M. P. Coons,  
 A. L. Dempwolff,  Zhengting Gan,  D. Hait,  P. R. Horn,  L. D. Jacobson,  
 I. Kaliman,  J. Kussmann,  A. W. Lange,  Ka Un Lao,  D. S. Levine,  Jie Liu,  
 S. C. McKenzie,  A. F. Morrison,  K. Nanda,  F. Plasser,  D. R. Rehn,  
 M. L. Vidal,  Zhi-Qiang You,  Ying Zhu,  B. Alam,  B. Albrecht,  
 A. Aldossary,  E. Alguire,  J. H. Andersen,  D. Barton,  K. Begam,  A. Behn,  
 Y. A. Bernard,  E. J. Berquist,  H. Burton,  A. Carreras,  K. Carter-Fenk,  
 R. Chakraborty,  A. D. Chien,  K. D. Closser,  V. Cofer-Shabica,  
 S. Dasgupta,  Jia Deng,  M. de Wergifosse,  M. Diedenhofen,  Hainam Do,  
 S. Ehlert,  Po-Tung Fang,  S. Fatehi,  Qingguo Feng,  T. Friedhoff,  
 J. Gayvert,  Qinghui Ge,  G. Gidofalvi,  M. Goldey,  J. Gomes,  
 C. Gonzalez-Espinoza,  S. Gulania,  A. Gunina,  M. W. D. Hanson-Heine,  
 P. H. P. Harbach,  A. W. Hauser,  M. F. Herbst,  M. Hernandez Vera,  
 M. Hodecker,  Z. C. Holden,  S. Houck,  Xunkun Huang,  Kerwin Hui,  
 B. C. Huynh,  M. Ivanov,  Hyunjun Ji,  Hanjie Jiang,  B. Kaduk,  S. Kaehler,  
 K. Khistyaev,  Jaehoon Kim,  P. Klunzinger,  Z. Koczor-Benda,  
 Joong Hoon Koh,  D. Kosenkov,  L. Koulias,  T. Kowalczyk,  C. M. Krauter,  
 K. Kue,  A. Kunitsa,  T. Kus,  A. Landau,  K. V. Lawler,  D. Lefrancois,  
 S. Lehtola,  Rain Li,  Yi-Pei Li,  Jiashu Liang,  M. Liebenthal,  
 Hung-Hsuan Lin,  You-Sheng Lin,  Fenglai Liu,  Kuan-Yu Liu,  
 M. Loipersberger,  A. Luenser,  A. Manjanath,  P. Manohar,  E. Mansoor,  
 S. F. Manzer,  Shan-Ping Mao,  A. V. Marenich,  T. Markovich,  S. Mason,  
 S. A. Maurer,  P. F. McLaughlin,  M. F. S. J. Menger,  J.-M. Mewes,  
 S. A. Mewes,  P. Morgante,  J. W. Mullinax,  K. J. Oosterbaan,  G. Paran,  
 Alexander C. Paul,  Suranjan K. Paul,  F. Pavosevic,  Zheng Pei,  S. Prager,  
 E. I. Proynov,  E. Ramos,  B. Rana,  A. E. Rask,  A. Rettig,  R. M. Richard,  
 F. Rob,  E. Rossomme,  T. Scheele,  M. Scheurer,  M. Schneider,  
 N. Sergueev,  S. M. Sharada,  W. Skomorowski,  D. W. Small,  C. J. Stein,  
 Yu-Chuan Su,  E. J. Sundstrom,  Zhen Tao,  J. Thirman,  T. Tsuchimochi,  
 N. M. Tubman,  S. P. Veccham,  O. Vydrov,  J. Wenzel,  J. Witte,  A. Yamada,  
 Kun Yao,  S. Yeganeh,  S. R. Yost,  A. Zech,  Igor Ying Zhang,  Xing Zhang,  
 Yu Zhang,  D. Zuev,  A. Aspuru-Guzik,  A. T. Bell,  N. A. Besley,  
 K. B. Bravaya,  B. R. Brooks,  D. Casanova,  Jeng-Da Chai,  S. Coriani,  
 C. J. Cramer,  A. E. DePrince, III,  R. A. DiStasio Jr.,  A. Dreuw,  
 B. D. Dunietz,  T. R. Furlani,  W. A. Goddard III,  S. Grimme,  
 S. Hammes-Schiffer,  T. Head-Gordon,  W. J. Hehre,  Chao-Ping Hsu,  
 T.-C. Jagau,  Yousung Jung,  A. Klamt,  Jing Kong,  D. S. Lambrecht,  
 WanZhen Liang,  N. J. Mayhall,  C. W. McCurdy,  J. B. Neaton,  
 C. Ochsenfeld,  J. A. Parkhill,  R. Peverati,  V. A. Rassolov,  Yihan Shao,  
 L. V. Slipchenko,  T. Stauch,  R. P. Steele,  J. E. Subotnik,  
 A. J. W. Thom,  A. Tkatchenko,  D. G. Truhlar,  T. Van Voorhis,  
 T. A. Wesolowski,  K. B. Whaley,  H. L. Woodcock III,  P. M. Zimmerman,  
 S. Faraji,  P. M. W. Gill,  M. Head-Gordon,  J. M. Herbert,  A. I. Krylov

 Additional authors for Version 5.4.1: 
 S. Kotaru,  Shaozhi Li,  Xiangyuan Li,  F. Matz,  A. Molle,  Haisheng Ren,  
 Yingli Su,  Hung-Yi Tsai,  C. Utku,  Fang Wang

 Contributors to earlier versions of Q-Chem not listed above: 
 R. D. Adamson,  B. Austin,  R. Baer,  J. Baker,  G. J. O. Beran,  
 K. Brandhorst,  S. T. Brown,  E. F. C. Byrd,  A. K. Chakraborty,  
 G. K. L. Chan,  Chun-Min Chang,  Yunqing Chen,  C.-L. Cheng,  
 Siu Hung Chien,  D. M. Chipman,  D. L. Crittenden,  H. Dachsel,  
 R. J. Doerksen,  A. D. Dutoi,  R. G. Edgar,  J. Fosso-Tande,  
 L. Fusti-Molnar,  D. Ghosh,  A. Ghysels,  A. Golubeva-Zadorozhnaya,  
 J. Gonthier,  M. S. Gordon,  S. R. Gwaltney,  G. Hawkins,  J. E. Herr,  
 A. Heyden,  S. Hirata,  E. G. Hohenstein,  G. Kedziora,  F. J. Keil,  
 C. Kelley,  Jihan Kim,  R. A. King,  R. Z. Khaliullin,  P. P. Korambath,  
 W. Kurlancheek,  A. Laurent,  A. M. Lee,  M. S. Lee,  S. V. Levchenko,  
 Ching Yeh Lin,  D. Liotard,  E. Livshits,  R. C. Lochan,  I. Lotan,  
 L. A. Martinez-Martinez,  P. E. Maslen,  N. Nair,  D. P. O'Neill,  
 D. Neuhauser,  E. Neuscamman,  C. M. Oana,  R. Olivares-Amaya,  R. Olson,  
 T. M. Perrine,  B. Peters,  P. A. Pieniazek,  A. Prociuk,  Y. M. Rhee,  
 J. Ritchie,  M. A. Rohrdanz,  E. Rosta,  N. J. Russ,  H. F. Schaefer III,  
 M. W. Schmidt,  N. E. Schultz,  S. Sharma,  N. Shenvi,  C. D. Sherrill,  
 A. C. Simmonett,  A. Sodt,  T. Stein,  D. Stuck,  K. S. Thanthiriwatte,  
 V. Vanovschi,  L. Vogt,  Tao Wang,  A. Warshel,  M. A. Watson,  
 C. F. Williams,  Q. Wu,  X. Xu,  Jun Yang,  W. Zhang,  Yan Zhao

 Please cite Q-Chem as follows:
 Y. Shao et al., Mol. Phys. 113, 184-215 (2015)
 DOI: 10.1080/00268976.2014.952696

 Q-Chem 5.4.1 for Intel X86 EM64T Linux

 Parts of Q-Chem use Armadillo 9.800.1 (Horizon Scraper).
 http://arma.sourceforge.net/

 Q-Chem begins on Fri Jul  1 13:49:16 2022  

 Host: gadi-cpu-clx-2030.gadi.nci.org.au
0

     Scratch files written to /jobfs/49914096.gadi-pbs/qchem1870465//
 Processing $rem in /apps/qchem/5.4.1/config/preferences:
 Processing $rem in /home/561/yj5695/.qchemrc:
 Symmetry turned off for PCM/SM12/SMD calculation
 Method-specific promolecule density matrix will be built for SM12 calculation

 Checking the input file for inconsistencies... 	...done.

--------------------------------------------------------------
User input:
--------------------------------------------------------------
$molecule
0  1
C -1.5546716193  1.0333913006 -0.8376000252
C -2.6898372008  0.7833317404 -1.6308080536
Cl -4.2915176562  0.8357978455 -0.9534752414
C -2.5758484657  0.4663410415 -2.9687880254
H -3.4603350849  0.2682038432 -3.5662503932
C -1.300798076  0.3890553283 -3.5566570872
C -0.1627604887  0.6489840858 -2.7694470258
C  1.1743724723  0.6226782123 -3.4013955573
C -0.2968637632  0.9621565041 -1.4245402095
S -1.644934809  1.4668651935  0.8844195596
O -0.2662805094  1.5873920747  1.35297247
O -2.5511725076  2.6029033695  1.0424021249
N -2.3101946318  0.22265377  1.7354672311
H -1.7863326229 -0.6479590747  1.6226690445
H -3.3007862101  0.0872016658  1.5297157529
N -1.1584465063  0.1137178676 -4.8863277905
C  0.1003852167 -0.3418077475 -5.4241349251
N  1.1898429626  0.294888744 -4.7202737686
H -1.9852527995 -0.1884309873 -5.3939565921
O  2.204697448  0.9426129764 -2.8016578524
H  0.5923977292  1.1573865345 -0.833846822
H  2.1051906396  0.2663590885 -5.162259732
C  0.1885507412 -1.8853396236 -5.4174143753
H  0.1512881542 -0.0531910338 -6.4769129097
H -0.6596737285 -2.3072165795 -5.9564765575
Cl  0.159352424 -2.5522046331 -3.7641322096
Cl  1.6718918919 -2.4002135068 -6.2699490295
$end

$rem
jobtype sp
exchange M062X
basis 6-31+G*
SMX_GAS_PHASE = TRUE
solvent_method sm12
$end

$smx
solvent water
charges mk
$end
--------------------------------------------------------------
 ----------------------------------------------------------------
             Standard Nuclear Orientation (Angstroms)
    I     Atom           X                Y                Z
 ----------------------------------------------------------------
    1      C      -1.5546716193     1.0333913006    -0.8376000252
    2      C      -2.6898372008     0.7833317404    -1.6308080536
    3      Cl     -4.2915176562     0.8357978455    -0.9534752414
    4      C      -2.5758484657     0.4663410415    -2.9687880254
    5      H      -3.4603350849     0.2682038432    -3.5662503932
    6      C      -1.3007980760     0.3890553283    -3.5566570872
    7      C      -0.1627604887     0.6489840858    -2.7694470258
    8      C       1.1743724723     0.6226782123    -3.4013955573
    9      C      -0.2968637632     0.9621565041    -1.4245402095
   10      S      -1.6449348090     1.4668651935     0.8844195596
   11      O      -0.2662805094     1.5873920747     1.3529724700
   12      O      -2.5511725076     2.6029033695     1.0424021249
   13      N      -2.3101946318     0.2226537700     1.7354672311
   14      H      -1.7863326229    -0.6479590747     1.6226690445
   15      H      -3.3007862101     0.0872016658     1.5297157529
   16      N      -1.1584465063     0.1137178676    -4.8863277905
   17      C       0.1003852167    -0.3418077475    -5.4241349251
   18      N       1.1898429626     0.2948887440    -4.7202737686
   19      H      -1.9852527995    -0.1884309873    -5.3939565921
   20      O       2.2046974480     0.9426129764    -2.8016578524
   21      H       0.5923977292     1.1573865345    -0.8338468220
   22      H       2.1051906396     0.2663590885    -5.1622597320
   23      C       0.1885507412    -1.8853396236    -5.4174143753
   24      H       0.1512881542    -0.0531910338    -6.4769129097
   25      H      -0.6596737285    -2.3072165795    -5.9564765575
   26      Cl      0.1593524240    -2.5522046331    -3.7641322096
   27      Cl      1.6718918919    -2.4002135068    -6.2699490295
 ----------------------------------------------------------------
 Nuclear Repulsion Energy =        2078.40189166 hartrees
 There are       87 alpha and       87 beta electrons
 Requested basis set is 6-31+G(d)
 There are 115 shells and 393 basis functions

 Total QAlloc Memory Limit   2000 MB
 Mega-Array Size       188 MB
 MEM_STATIC part       192 MB
 A cutoff of  1.0D-08 yielded   4622 shell pairs
 There are     57411 function pairs
 Smallest overlap matrix eigenvalue = 3.34E-07

 Q-Chem warning in module stvman/mkSTV.C, line 323:

 Overlap eigenvalue is smaller than square root of threshold
 Use THRESH >= 12 to get rid of this warning

 Linear dependence detected in AO basis
 Tighter screening thresholds may be required for diffuse basis sets
 Use S2THRESH > 14 and THRESH = 14 in case of SCF convergence issues
 Number of orthogonalized atomic orbitals = 391
 Maximum deviation from orthogonality = 1.525E-10

 Scale SEOQF with 1.000000e-01/1.000000e-01/1.000000e-02

 Standard Electronic Orientation quadrupole field applied
 Nucleus-field energy     =     0.0000000300 hartrees
 ================ Generating on-the-fly Promolecule Density  ================
Attempting to make child job directory: /jobfs/49914096.gadi-pbs/qchem1870465//Frg1/
Attempting to make child job directory: /jobfs/49914096.gadi-pbs/qchem1870465//Frg2/
Attempting to make child job directory: /jobfs/49914096.gadi-pbs/qchem1870465//Frg3/
Attempting to make child job directory: /jobfs/49914096.gadi-pbs/qchem1870465//Frg4/
Attempting to make child job directory: /jobfs/49914096.gadi-pbs/qchem1870465//Frg5/
Attempting to make child job directory: /jobfs/49914096.gadi-pbs/qchem1870465//Frg6/
Creating input file /jobfs/49914096.gadi-pbs/qchem1870465/Frg1.input
using default PutDataFrgm: nothing
calling putenv with: QCSCRATCH=/jobfs/49914096.gadi-pbs/qchem1870465/ 
Spawning Job For Fragment 0
Done Job For Fragment 0
calling putenv with: QCSCRATCH=/jobfs/49914096.gadi-pbs 
calling putenv with: QCTHREADS=8 
Creating input file /jobfs/49914096.gadi-pbs/qchem1870465/Frg2.input
using default PutDataFrgm: nothing
calling putenv with: QCSCRATCH=/jobfs/49914096.gadi-pbs/qchem1870465/ 
Spawning Job For Fragment 1
Done Job For Fragment 1
calling putenv with: QCSCRATCH=/jobfs/49914096.gadi-pbs 
calling putenv with: QCTHREADS=8 
Creating input file /jobfs/49914096.gadi-pbs/qchem1870465/Frg3.input
using default PutDataFrgm: nothing
calling putenv with: QCSCRATCH=/jobfs/49914096.gadi-pbs/qchem1870465/ 
Spawning Job For Fragment 2
Done Job For Fragment 2
calling putenv with: QCSCRATCH=/jobfs/49914096.gadi-pbs 
calling putenv with: QCTHREADS=8 
Creating input file /jobfs/49914096.gadi-pbs/qchem1870465/Frg4.input
using default PutDataFrgm: nothing
calling putenv with: QCSCRATCH=/jobfs/49914096.gadi-pbs/qchem1870465/ 
Spawning Job For Fragment 3
Done Job For Fragment 3
calling putenv with: QCSCRATCH=/jobfs/49914096.gadi-pbs 
calling putenv with: QCTHREADS=8 
Creating input file /jobfs/49914096.gadi-pbs/qchem1870465/Frg5.input
using default PutDataFrgm: nothing
calling putenv with: QCSCRATCH=/jobfs/49914096.gadi-pbs/qchem1870465/ 
Spawning Job For Fragment 4
Done Job For Fragment 4
calling putenv with: QCSCRATCH=/jobfs/49914096.gadi-pbs 
calling putenv with: QCTHREADS=8 
Creating input file /jobfs/49914096.gadi-pbs/qchem1870465/Frg6.input
using default PutDataFrgm: nothing
calling putenv with: QCSCRATCH=/jobfs/49914096.gadi-pbs/qchem1870465/ 
Spawning Job For Fragment 5
Done Job For Fragment 5
calling putenv with: QCSCRATCH=/jobfs/49914096.gadi-pbs 
calling putenv with: QCTHREADS=8 
 Time for running child jobs:  CPU 0.92 s  wall 2.14 s
 ============= Method Specific Promolecule Density Constructed =============
 Guess from superposition of atomic densities
 Warning:  Energy on first SCF cycle will be non-variational
 SAD guess density has 174.000000 electrons

 -----------------------------------------------------------------------
  General SCF calculation program by
  Eric Jon Sundstrom, Paul Horn, Yuezhi Mao, Dmitri Zuev, Alec White,
  David Stuck, Shaama M.S., Shane Yost, Joonho Lee, David Small,
  Daniel Levine, Susi Lehtola, Hugh Burton, Evgeny Epifanovsky,
  Bang C. Huynh
 -----------------------------------------------------------------------
 Exchange:     0.5400 Hartree-Fock + 1.0000 M06-2X
 Correlation:  1.0000 M06-2X
 Using SG-3 standard quadrature grid
 using 8 threads for integral computing
 -------------------------------------------------------
 OpenMP Integral computing Module                
 Release: version 1.0, May 2013, Q-Chem Inc. Pittsburgh 
 -------------------------------------------------------
 A restricted SCF calculation will be
 performed using DIIS
 SCF converges when DIIS error is below 1.0e-05
 ---------------------------------------
  Cycle       Energy         DIIS error
 ---------------------------------------
    1   -2521.9088055967      3.75e-02  
    2   -2515.6340453170      4.70e-03  
    3   -2515.2451106553      7.19e-03  
    4   -2516.0030307391      7.93e-04  
    5   -2516.0113868574      3.98e-04  
    6   -2516.0137396750      1.00e-04  
    7   -2516.0138905941      3.89e-05  
    8   -2516.0139145458      1.15e-05  
    9   -2516.0139169046      5.48e-06  Convergence criterion met
 ---------------------------------------
 SCF time:   CPU 243.11s  wall 30.00s 
 SCF   energy in the final basis set =    -2516.0139169046
 Total energy in the final basis set =    -2516.0139169046
 Exchange:     0.5400 Hartree-Fock + 1.0000 M06-2X
 Correlation:  1.0000 M06-2X
 Using SG-3 standard quadrature grid
 
 SM12 calculation using Merz-Singh-Kollman charges
 Citation of the SM12 model:
 Marenich, A.V.; Cramer, C.J.; Truhlar, D.G.
 J. Chem. Theory Comput. 2013, 9, 609-612.
 iSolventCode=           1
 Solvent: water                                                           
 
  Building new vdw surfaces
         Merz-Kollman ESP Net Atomic Charges

     Atom                 Charge (a.u.)
  ----------------------------------------
      1 C                     0.123862
      2 C                    -0.212549
      3 Cl                    0.003633
      4 C                    -0.147024
      5 H                     0.163901
      6 C                     0.136226
      7 C                     0.273693
      8 C                     0.536576
      9 C                    -0.399757
     10 S                     0.960651
     11 O                    -0.490166
     12 O                    -0.471933
     13 N                    -0.777302
     14 H                     0.372270
     15 H                     0.359882
     16 N                    -0.533252
     17 C                     0.106814
     18 N                    -0.523591
     19 H                     0.397833
     20 O                    -0.539280
     21 H                     0.229776
     22 H                     0.381843
     23 C                    -0.435067
     24 H                     0.183158
     25 H                     0.292318
     26 Cl                    0.006565
     27 Cl                    0.000919
  ----------------------------------------
  Sum of atomic charges =     0.000000

  Related Dipole Moment =    11.2690 (X -4.2199 Y -5.8133 Z -8.6827)


 Charges (in A.U.) from Merz-Kollman fitting 
 -----------------------------------------------
 Center     Atomic                  MZ       
 Number     Number                  Charge
 -----------------------------------------------
    1          6                    0.123862
    2          6                   -0.212549
    3         17                    0.003633
    4          6                   -0.147024
    5          1                    0.163901
    6          6                    0.136226
    7          6                    0.273693
    8          6                    0.536576
    9          6                   -0.399757
   10         16                    0.960651
   11          8                   -0.490166
   12          8                   -0.471933
   13          7                   -0.777302
   14          1                    0.372270
   15          1                    0.359882
   16          7                   -0.533252
   17          6                    0.106814
   18          7                   -0.523591
   19          1                    0.397833
   20          8                   -0.539280
   21          1                    0.229776
   22          1                    0.381843
   23          6                   -0.435067
   24          1                    0.183158
   25          1                    0.292318
   26         17                    0.006565
   27         17                    0.000919
 -----------------------------------------------
 A restricted SCF calculation will be
 performed using Roothaan-Hall, DIIS
 SCF converges when DIIS error is below 1.0e-05
 ---------------------------------------
  Cycle       Energy         DIIS error
 ---------------------------------------
         Merz-Kollman ESP Net Atomic Charges

     Atom                 Charge (a.u.)
  ----------------------------------------
      1 C                     0.094434
      2 C                    -0.221827
      3 Cl                   -0.000520
      4 C                    -0.116472
      5 H                     0.180131
      6 C                     0.145338
      7 C                     0.285326
      8 C                     0.548848
      9 C                    -0.419956
     10 S                     1.012692
     11 O                    -0.548029
     12 O                    -0.531168
     13 N                    -0.776667
     14 H                     0.393345
     15 H                     0.375733
     16 N                    -0.487055
     17 C                     0.073578
     18 N                    -0.478657
     19 H                     0.415329
     20 O                    -0.638626
     21 H                     0.224006
     22 H                     0.387727
     23 C                    -0.351228
     24 H                     0.205440
     25 H                     0.296902
     26 Cl                   -0.038809
     27 Cl                   -0.029814
  ----------------------------------------
  Sum of atomic charges =     0.000000

  Related Dipole Moment =    14.6751 (X -5.8569 Y -7.0502 Z -11.4608)


 Charges (in A.U.) from Merz-Kollman fitting 
 -----------------------------------------------
 Center     Atomic                  MZ       
 Number     Number                  Charge
 -----------------------------------------------
    1          6                    0.094434
    2          6                   -0.221827
    3         17                   -0.000520
    4          6                   -0.116472
    5          1                    0.180131
    6          6                    0.145338
    7          6                    0.285326
    8          6                    0.548848
    9          6                   -0.419956
   10         16                    1.012692
   11          8                   -0.548029
   12          8                   -0.531168
   13          7                   -0.776667
   14          1                    0.393345
   15          1                    0.375733
   16          7                   -0.487055
   17          6                    0.073578
   18          7                   -0.478657
   19          1                    0.415329
   20          8                   -0.638626
   21          1                    0.224006
   22          1                    0.387727
   23          6                   -0.351228
   24          1                    0.205440
   25          1                    0.296902
   26         17                   -0.038809
   27         17                   -0.029814
 -----------------------------------------------
    1   -2516.0139187126      4.38e-04  Roothaan Step
 ---------------------------------------
  Cycle       Energy         DIIS error
 ---------------------------------------
         Merz-Kollman ESP Net Atomic Charges

     Atom                 Charge (a.u.)
  ----------------------------------------
      1 C                     0.133558
      2 C                    -0.223606
      3 Cl                    0.000571
      4 C                    -0.135580
      5 H                     0.190773
      6 C                     0.065706
      7 C                     0.316113
      8 C                     0.538177
      9 C                    -0.410053
     10 S                     0.978428
     11 O                    -0.532193
     12 O                    -0.507931
     13 N                    -0.791482
     14 H                     0.393172
     15 H                     0.374599
     16 N                    -0.467054
     17 C                    -0.004054
     18 N                    -0.500589
     19 H                     0.426295
     20 O                    -0.591852
     21 H                     0.223819
     22 H                     0.396655
     23 C                    -0.417258
     24 H                     0.231452
     25 H                     0.310898
     26 Cl                   -0.005161
     27 Cl                    0.006596
  ----------------------------------------
  Sum of atomic charges =     0.000000

  Related Dipole Moment =    13.7693 (X -5.1010 Y -6.8488 Z -10.8012)


 Charges (in A.U.) from Merz-Kollman fitting 
 -----------------------------------------------
 Center     Atomic                  MZ       
 Number     Number                  Charge
 -----------------------------------------------
    1          6                    0.133558
    2          6                   -0.223606
    3         17                    0.000571
    4          6                   -0.135580
    5          1                    0.190773
    6          6                    0.065706
    7          6                    0.316113
    8          6                    0.538177
    9          6                   -0.410053
   10         16                    0.978428
   11          8                   -0.532193
   12          8                   -0.507931
   13          7                   -0.791482
   14          1                    0.393172
   15          1                    0.374599
   16          7                   -0.467054
   17          6                   -0.004054
   18          7                   -0.500589
   19          1                    0.426295
   20          8                   -0.591852
   21          1                    0.223819
   22          1                    0.396655
   23          6                   -0.417258
   24          1                    0.231452
   25          1                    0.310898
   26         17                   -0.005161
   27         17                    0.006596
 -----------------------------------------------
    1   -2516.0003456352      3.76e-04  
         Merz-Kollman ESP Net Atomic Charges

     Atom                 Charge (a.u.)
  ----------------------------------------
      1 C                     0.110471
      2 C                    -0.222954
      3 Cl                   -0.000664
      4 C                    -0.133678
      5 H                     0.188366
      6 C                     0.114096
      7 C                     0.297175
      8 C                     0.564159
      9 C                    -0.414805
     10 S                     1.010690
     11 O                    -0.548768
     12 O                    -0.527657
     13 N                    -0.783450
     14 H                     0.392843
     15 H                     0.374226
     16 N                    -0.476066
     17 C                     0.036263
     18 N                    -0.486615
     19 H                     0.421761
     20 O                    -0.637898
     21 H                     0.224023
     22 H                     0.391939
     23 C                    -0.374010
     24 H                     0.217763
     25 H                     0.300138
     26 Cl                   -0.024003
     27 Cl                   -0.013345
  ----------------------------------------
  Sum of atomic charges =     0.000000

  Related Dipole Moment =    14.5417 (X -5.5549 Y -7.0825 Z -11.4211)


 Charges (in A.U.) from Merz-Kollman fitting 
 -----------------------------------------------
 Center     Atomic                  MZ       
 Number     Number                  Charge
 -----------------------------------------------
    1          6                    0.110471
    2          6                   -0.222954
    3         17                   -0.000664
    4          6                   -0.133678
    5          1                    0.188366
    6          6                    0.114096
    7          6                    0.297175
    8          6                    0.564159
    9          6                   -0.414805
   10         16                    1.010690
   11          8                   -0.548768
   12          8                   -0.527657
   13          7                   -0.783450
   14          1                    0.392843
   15          1                    0.374226
   16          7                   -0.476066
   17          6                    0.036263
   18          7                   -0.486615
   19          1                    0.421761
   20          8                   -0.637898
   21          1                    0.224023
   22          1                    0.391939
   23          6                   -0.374010
   24          1                    0.217763
   25          1                    0.300138
   26         17                   -0.024003
   27         17                   -0.013345
 -----------------------------------------------
    2   -2516.0036418386      4.81e-04  
         Merz-Kollman ESP Net Atomic Charges

     Atom                 Charge (a.u.)
  ----------------------------------------
      1 C                     0.110285
      2 C                    -0.222471
      3 Cl                   -0.001122
      4 C                    -0.128066
      5 H                     0.188076
      6 C                     0.107867
      7 C                     0.302116
      8 C                     0.550150
      9 C                    -0.416809
     10 S                     1.008749
     11 O                    -0.549503
     12 O                    -0.528048
     13 N                    -0.784064
     14 H                     0.393554
     15 H                     0.374971
     16 N                    -0.470207
     17 C                     0.026049
     18 N                    -0.483062
     19 H                     0.422579
     20 O                    -0.631423
     21 H                     0.224752
     22 H                     0.392501
     23 C                    -0.372700
     24 H                     0.221488
     25 H                     0.301981
     26 Cl                   -0.024855
     27 Cl                   -0.012790
  ----------------------------------------
  Sum of atomic charges =     0.000000

  Related Dipole Moment =    14.6378 (X -5.5930 Y -7.1162 Z -11.5041)


 Charges (in A.U.) from Merz-Kollman fitting 
 -----------------------------------------------
 Center     Atomic                  MZ       
 Number     Number                  Charge
 -----------------------------------------------
    1          6                    0.110285
    2          6                   -0.222471
    3         17                   -0.001122
    4          6                   -0.128066
    5          1                    0.188076
    6          6                    0.107867
    7          6                    0.302116
    8          6                    0.550150
    9          6                   -0.416809
   10         16                    1.008749
   11          8                   -0.549503
   12          8                   -0.528048
   13          7                   -0.784064
   14          1                    0.393554
   15          1                    0.374971
   16          7                   -0.470207
   17          6                    0.026049
   18          7                   -0.483062
   19          1                    0.422579
   20          8                   -0.631423
   21          1                    0.224752
   22          1                    0.392501
   23          6                   -0.372700
   24          1                    0.221488
   25          1                    0.301981
   26         17                   -0.024855
   27         17                   -0.012790
 -----------------------------------------------
    3   -2516.0023004375      5.36e-05  
         Merz-Kollman ESP Net Atomic Charges

     Atom                 Charge (a.u.)
  ----------------------------------------
      1 C                     0.110780
      2 C                    -0.223148
      3 Cl                   -0.000757
      4 C                    -0.130932
      5 H                     0.188929
      6 C                     0.107050
      7 C                     0.303485
      8 C                     0.554486
      9 C                    -0.416215
     10 S                     1.007745
     11 O                    -0.549042
     12 O                    -0.527507
     13 N                    -0.784708
     14 H                     0.393548
     15 H                     0.374930
     16 N                    -0.470174
     17 C                     0.025267
     18 N                    -0.482573
     19 H                     0.423042
     20 O                    -0.635059
     21 H                     0.224742
     22 H                     0.392475
     23 C                    -0.375671
     24 H                     0.221957
     25 H                     0.302317
     26 Cl                   -0.023611
     27 Cl                   -0.011356
  ----------------------------------------
  Sum of atomic charges =     0.000000

  Related Dipole Moment =    14.6495 (X -5.5698 Y -7.1229 Z -11.5261)


 Charges (in A.U.) from Merz-Kollman fitting 
 -----------------------------------------------
 Center     Atomic                  MZ       
 Number     Number                  Charge
 -----------------------------------------------
    1          6                    0.110780
    2          6                   -0.223148
    3         17                   -0.000757
    4          6                   -0.130932
    5          1                    0.188929
    6          6                    0.107050
    7          6                    0.303485
    8          6                    0.554486
    9          6                   -0.416215
   10         16                    1.007745
   11          8                   -0.549042
   12          8                   -0.527507
   13          7                   -0.784708
   14          1                    0.393548
   15          1                    0.374930
   16          7                   -0.470174
   17          6                    0.025267
   18          7                   -0.482573
   19          1                    0.423042
   20          8                   -0.635059
   21          1                    0.224742
   22          1                    0.392475
   23          6                   -0.375671
   24          1                    0.221957
   25          1                    0.302317
   26         17                   -0.023611
   27         17                   -0.011356
 -----------------------------------------------
    4   -2516.0019682428      2.74e-05  
    5   -2516.0018412882      7.26e-06  Convergence criterion met
 ---------------------------------------
 SCF time:   CPU 193.16s  wall 25.00s 
(0)  E-EN(g) gas-phase elect-nuc energy                -2516.013916905 a.u.
(1)  E-EN(liq) elect-nuc energy of solute              -2516.001841288 a.u.
(2)  G-P(liq) polarization free energy of solvation           -33.3534 kcal/mol
(3)  G-ENP(liq) elect-nuc-pol free energy of system    -2516.054993370 a.u.
(4)  G-CDS(liq) cavity-dispersion-solvent structure 
     free energy                                               -0.8898 kcal/mol
(5)  G-P-CDS(liq) = G-P(liq) + G-CDS(liq) = (2) + (4)         -34.2433 kcal/mol
(6)  G-S(liq) free energy of system = (1) + (5)        -2516.056411395 a.u.
(7)  DeltaE-EN(liq) elect-nuc reorganization
     energy of solute molecule (7) = (1) - (0)                  7.5776 kcal/mol
(8)  DeltaG-ENP(liq) elect-nuc-pol free energy
     of solvation (8) = (3) - (0)                             -25.7759 kcal/mol
(9)  DeltaG-S(liq) free energy of  solvation
     (9) = (6) - (0)                                          -26.6657 kcal/mol
 SCF   energy in the final basis set =    -2516.0564113951
 Total energy in the final basis set =    -2516.0564113951
 
 --------------------------------------------------------------
 
                    Orbital Energies (a.u.)
 --------------------------------------------------------------
 
 Alpha MOs
 -- Occupied --
********-102.6810-102.6805 -90.1802 -19.6596 -19.6579 -19.6337 -14.8184
-14.8145 -14.8080 -10.6856 -10.6842 -10.6707 -10.6590 -10.6436 -10.6105
-10.5976 -10.5891 -10.5865  -9.8457  -9.8314  -9.8308  -8.4934  -7.5700
 -7.5635  -7.5630  -7.5557  -7.5550  -7.5488  -7.5485  -7.5483  -7.5480
 -6.4157  -6.4153  -6.4145  -1.2612  -1.1838  -1.1464  -1.1248  -1.0480
 -1.0381  -1.0219  -1.0144  -0.9671  -0.9326  -0.9029  -0.8770  -0.8355
 -0.7729  -0.7600  -0.7368  -0.7237  -0.6809  -0.6498  -0.6460  -0.6224
 -0.6161  -0.5969  -0.5894  -0.5784  -0.5601  -0.5526  -0.5437  -0.5388
 -0.5343  -0.5179  -0.5099  -0.5087  -0.4957  -0.4828  -0.4529  -0.4470
 -0.4400  -0.4230  -0.4146  -0.4143  -0.4094  -0.4021  -0.3987  -0.3920
 -0.3840  -0.3809  -0.3777  -0.3618  -0.3480  -0.3314  -0.2876
 -- Virtual --
 -0.0401  -0.0159  -0.0072  -0.0004   0.0188   0.0236   0.0278   0.0366
  0.0382   0.0414   0.0439   0.0512   0.0527   0.0545   0.0649   0.0685
  0.0732   0.0759   0.0804   0.0873   0.0892   0.0947   0.0952   0.1012
  0.1078   0.1113   0.1132   0.1145   0.1230   0.1276   0.1312   0.1338
  0.1381   0.1427   0.1429   0.1454   0.1529   0.1548   0.1573   0.1656
  0.1693   0.1709   0.1739   0.1783   0.1858   0.1870   0.1907   0.1947
  0.1999   0.2024   0.2042   0.2129   0.2152   0.2199   0.2203   0.2241
  0.2274   0.2297   0.2339   0.2412   0.2429   0.2500   0.2529   0.2579
  0.2600   0.2662   0.2672   0.2713   0.2737   0.2779   0.2816   0.2863
  0.2902   0.2958   0.3005   0.3053   0.3064   0.3125   0.3174   0.3233
  0.3254   0.3312   0.3339   0.3402   0.3486   0.3529   0.3618   0.3648
  0.3694   0.3763   0.3834   0.3897   0.3996   0.4136   0.4199   0.4261
  0.4292   0.4397   0.4513   0.4644   0.4764   0.4848   0.5082   0.5292
  0.5490   0.5670   0.5882   0.5991   0.6083   0.6246   0.6407   0.6440
  0.6489   0.6553   0.6627   0.6677   0.6728   0.6882   0.6966   0.7030
  0.7061   0.7122   0.7303   0.7351   0.7406   0.7483   0.7569   0.7672
  0.7787   0.7820   0.7894   0.8075   0.8147   0.8296   0.8332   0.8471
  0.8530   0.8718   0.8793   0.8821   0.9024   0.9117   0.9250   0.9278
  0.9356   0.9443   0.9490   0.9502   0.9704   0.9717   0.9757   0.9976
  1.0108   1.0172   1.0251   1.0308   1.0340   1.0445   1.0542   1.0586
  1.0712   1.0913   1.0939   1.0977   1.1066   1.1267   1.1355   1.1413
  1.1437   1.1449   1.1553   1.1651   1.1678   1.1806   1.1850   1.1925
  1.2014   1.2065   1.2239   1.2477   1.2497   1.2626   1.2779   1.2861
  1.2986   1.3101   1.3293   1.3400   1.3473   1.3613   1.3740   1.3841
  1.3896   1.3982   1.4061   1.4124   1.4227   1.4288   1.4419   1.4618
  1.4705   1.4717   1.4964   1.5147   1.5329   1.5409   1.5438   1.5620
  1.5731   1.6111   1.6326   1.6675   1.6766   1.6939   1.7289   1.7583
  1.7767   1.7842   1.7933   1.8011   1.8074   1.8120   1.8429   1.8466
  1.8567   1.8729   1.8961   1.9148   1.9184   1.9282   1.9427   1.9517
  1.9684   2.0021   2.0118   2.0176   2.0246   2.0362   2.0491   2.0823
  2.1141   2.1238   2.1388   2.1610   2.1703   2.1787   2.1951   2.1988
  2.2163   2.2276   2.2455   2.2518   2.2791   2.2842   2.3011   2.3325
  2.3549   2.3896   2.4314   2.4340   2.4544   2.5022   2.5197   2.5612
  2.5720   2.5840   2.6068   2.6208   2.6783   2.6965   2.7166   2.7407
  2.7570   2.7955   2.8441   2.8658   2.8887   2.9444   2.9476   2.9741
  3.0026   3.1289   3.2117   3.3365   3.4024   3.9066   4.0589   4.1081
  4.2236   4.2570   4.2624   4.3044   4.3258   4.3314   4.3844   4.4189
  4.4522   4.4563   4.4958   4.5027   4.5303   4.5932   4.7304   4.8655
 --------------------------------------------------------------
 
          Ground-State Mulliken Net Atomic Charges

     Atom                 Charge (a.u.)
  ----------------------------------------
      1 C                    -3.808638
      2 C                     1.305563
      3 Cl                    0.221001
      4 C                    -0.390895
      5 H                     0.305370
      6 C                     1.894367
      7 C                     0.857196
      8 C                    -0.138764
      9 C                    -0.663638
     10 S                     1.060844
     11 O                    -0.786426
     12 O                    -0.619888
     13 N                    -0.824577
     14 H                     0.514196
     15 H                     0.492975
     16 N                    -0.395503
     17 C                     0.834944
     18 N                    -0.593296
     19 H                     0.527305
     20 O                    -0.868457
     21 H                     0.288356
     22 H                     0.506434
     23 C                    -0.015262
     24 H                     0.318041
     25 H                     0.353821
     26 Cl                   -0.196839
     27 Cl                   -0.178230
  ----------------------------------------
  Sum of atomic charges =    -0.000001

         Merz-Kollman ESP Net Atomic Charges

     Atom                 Charge (a.u.)
  ----------------------------------------
      1 C                     0.110427
      2 C                    -0.222219
      3 Cl                   -0.001074
      4 C                    -0.131687
      5 H                     0.189013
      6 C                     0.107845
      7 C                     0.302114
      8 C                     0.555218
      9 C                    -0.415939
     10 S                     1.009592
     11 O                    -0.549822
     12 O                    -0.528181
     13 N                    -0.784791
     14 H                     0.393442
     15 H                     0.374828
     16 N                    -0.470217
     17 C                     0.025488
     18 N                    -0.483165
     19 H                     0.423093
     20 O                    -0.635146
     21 H                     0.224781
     22 H                     0.392558
     23 C                    -0.374937
     24 H                     0.221812
     25 H                     0.301980
     26 Cl                   -0.023565
     27 Cl                   -0.011449
  ----------------------------------------
  Sum of atomic charges =     0.000000

  Related Dipole Moment =    14.6549 (X -5.5694 Y -7.1282 Z -11.5299)

 -----------------------------------------------------------------
                    Cartesian Multipole Moments
 -----------------------------------------------------------------
    Charge (ESU x 10^10)
                -0.0000
    Dipole Moment (Debye)
         X      -5.5373      Y      -7.1401      Z     -11.4220
       Tot      14.5638
    Quadrupole Moments (Debye-Ang)
        XX    -137.6569     XY      11.0030     YY    -155.5193
        XZ      21.5117     YZ      -4.0633     ZZ     -76.5165
    Octopole Moments (Debye-Ang^2)
       XXX     290.7111    XXY     -53.6394    XYY     133.1056
       YYY     -71.4467    XXZ     306.3414    XYZ       3.2559
       YYZ     337.4198    XZZ      25.2398    YZZ     -52.9706
       ZZZ     579.6408
    Hexadecapole Moments (Debye-Ang^3)
      XXXX   -3271.9907   XXXY     620.3149   XXYY    -987.0641
      XYYY     668.7902   YYYY   -2049.9196   XXXZ     406.8749
      XXYZ    -342.7336   XYYZ     174.8546   YYYZ   -1085.2698
      XXZZ   -2020.5348   XYZZ     310.1075   YYZZ   -2106.2030
      XZZZ     752.5400   YZZZ    -889.5013   ZZZZ   -7815.9280
 -----------------------------------------------------------------
 Total job time:  57.97s(wall), 442.43s(cpu) 
 Fri Jul  1 13:50:14 2022

        *************************************************************
        *                                                           *
        *  Thank you very much for using Q-Chem.  Have a nice day.  *
        *                                                           *
        *************************************************************


