                  Welcome to Q-Chem
     A Quantum Leap Into The Future Of Chemistry


 Q-Chem 5.4 (devel), Q-Chem, Inc., Pleasanton, CA (2021)

 E. Epifanovsky,  A. T. B. Gilbert,  Xintian Feng,  Joonho Lee,  Yuezhi Mao,  
 N. Mardirossian,  P. Pokhilko,  A. White,  M. Wormit,  M. P. Coons,  
 A. L. Dempwolff,  Zhengting Gan,  D. Hait,  P. R. Horn,  L. D. Jacobson,  
 I. Kaliman,  J. Kussmann,  A. W. Lange,  Ka Un Lao,  D. S. Levine,  Jie Liu,  
 S. C. McKenzie,  A. F. Morrison,  K. Nanda,  F. Plasser,  D. R. Rehn,  
 M. L. Vidal,  Zhi-Qiang You,  Ying Zhu,  B. Alam,  B. Albrecht,  
 A. Aldossary,  E. Alguire,  J. H. Andersen,  D. Barton,  K. Begam,  A. Behn,  
 Y. A. Bernard,  E. J. Berquist,  H. Burton,  A. Carreras,  K. Carter-Fenk,  
 R. Chakraborty,  A. D. Chien,  K. D. Closser,  V. Cofer-Shabica,  
 S. Dasgupta,  Jia Deng,  M. de Wergifosse,  M. Diedenhofen,  Hainam Do,  
 S. Ehlert,  Po-Tung Fang,  S. Fatehi,  Qingguo Feng,  T. Friedhoff,  
 J. Gayvert,  Qinghui Ge,  G. Gidofalvi,  M. Goldey,  J. Gomes,  
 C. Gonzalez-Espinoza,  S. Gulania,  A. Gunina,  M. W. D. Hanson-Heine,  
 P. H. P. Harbach,  A. W. Hauser,  M. F. Herbst,  M. Hernandez Vera,  
 M. Hodecker,  Z. C. Holden,  S. Houck,  Xunkun Huang,  Kerwin Hui,  
 B. C. Huynh,  M. Ivanov,  Hyunjun Ji,  Hanjie Jiang,  B. Kaduk,  S. Kaehler,  
 K. Khistyaev,  Jaehoon Kim,  P. Klunzinger,  Z. Koczor-Benda,  
 Joong Hoon Koh,  D. Kosenkov,  L. Koulias,  T. Kowalczyk,  C. M. Krauter,  
 K. Kue,  A. Kunitsa,  T. Kus,  A. Landau,  K. V. Lawler,  D. Lefrancois,  
 S. Lehtola,  Rain Li,  Yi-Pei Li,  Jiashu Liang,  M. Liebenthal,  
 Hung-Hsuan Lin,  You-Sheng Lin,  Fenglai Liu,  Kuan-Yu Liu,  
 M. Loipersberger,  A. Luenser,  A. Manjanath,  P. Manohar,  E. Mansoor,  
 S. F. Manzer,  Shan-Ping Mao,  A. V. Marenich,  T. Markovich,  S. Mason,  
 S. A. Maurer,  P. F. McLaughlin,  M. F. S. J. Menger,  J.-M. Mewes,  
 S. A. Mewes,  P. Morgante,  J. W. Mullinax,  K. J. Oosterbaan,  G. Paran,  
 Alexander C. Paul,  Suranjan K. Paul,  F. Pavosevic,  Zheng Pei,  S. Prager,  
 E. I. Proynov,  E. Ramos,  B. Rana,  A. E. Rask,  A. Rettig,  R. M. Richard,  
 F. Rob,  E. Rossomme,  T. Scheele,  M. Scheurer,  M. Schneider,  
 N. Sergueev,  S. M. Sharada,  W. Skomorowski,  D. W. Small,  C. J. Stein,  
 Yu-Chuan Su,  E. J. Sundstrom,  Zhen Tao,  J. Thirman,  T. Tsuchimochi,  
 N. M. Tubman,  S. P. Veccham,  O. Vydrov,  J. Wenzel,  J. Witte,  A. Yamada,  
 Kun Yao,  S. Yeganeh,  S. R. Yost,  A. Zech,  Igor Ying Zhang,  Xing Zhang,  
 Yu Zhang,  D. Zuev,  A. Aspuru-Guzik,  A. T. Bell,  N. A. Besley,  
 K. B. Bravaya,  B. R. Brooks,  D. Casanova,  Jeng-Da Chai,  S. Coriani,  
 C. J. Cramer,  A. E. DePrince, III,  R. A. DiStasio Jr.,  A. Dreuw,  
 B. D. Dunietz,  T. R. Furlani,  W. A. Goddard III,  S. Grimme,  
 S. Hammes-Schiffer,  T. Head-Gordon,  W. J. Hehre,  Chao-Ping Hsu,  
 T.-C. Jagau,  Yousung Jung,  A. Klamt,  Jing Kong,  D. S. Lambrecht,  
 WanZhen Liang,  N. J. Mayhall,  C. W. McCurdy,  J. B. Neaton,  
 C. Ochsenfeld,  J. A. Parkhill,  R. Peverati,  V. A. Rassolov,  Yihan Shao,  
 L. V. Slipchenko,  T. Stauch,  R. P. Steele,  J. E. Subotnik,  
 A. J. W. Thom,  A. Tkatchenko,  D. G. Truhlar,  T. Van Voorhis,  
 T. A. Wesolowski,  K. B. Whaley,  H. L. Woodcock III,  P. M. Zimmerman,  
 S. Faraji,  P. M. W. Gill,  M. Head-Gordon,  J. M. Herbert,  A. I. Krylov

 Additional authors for Version 5.4.1: 
 S. Kotaru,  Shaozhi Li,  Xiangyuan Li,  F. Matz,  A. Molle,  Haisheng Ren,  
 Yingli Su,  Hung-Yi Tsai,  C. Utku,  Fang Wang

 Contributors to earlier versions of Q-Chem not listed above: 
 R. D. Adamson,  B. Austin,  R. Baer,  J. Baker,  G. J. O. Beran,  
 K. Brandhorst,  S. T. Brown,  E. F. C. Byrd,  A. K. Chakraborty,  
 G. K. L. Chan,  Chun-Min Chang,  Yunqing Chen,  C.-L. Cheng,  
 Siu Hung Chien,  D. M. Chipman,  D. L. Crittenden,  H. Dachsel,  
 R. J. Doerksen,  A. D. Dutoi,  R. G. Edgar,  J. Fosso-Tande,  
 L. Fusti-Molnar,  D. Ghosh,  A. Ghysels,  A. Golubeva-Zadorozhnaya,  
 J. Gonthier,  M. S. Gordon,  S. R. Gwaltney,  G. Hawkins,  J. E. Herr,  
 A. Heyden,  S. Hirata,  E. G. Hohenstein,  G. Kedziora,  F. J. Keil,  
 C. Kelley,  Jihan Kim,  R. A. King,  R. Z. Khaliullin,  P. P. Korambath,  
 W. Kurlancheek,  A. Laurent,  A. M. Lee,  M. S. Lee,  S. V. Levchenko,  
 Ching Yeh Lin,  D. Liotard,  E. Livshits,  R. C. Lochan,  I. Lotan,  
 L. A. Martinez-Martinez,  P. E. Maslen,  N. Nair,  D. P. O'Neill,  
 D. Neuhauser,  E. Neuscamman,  C. M. Oana,  R. Olivares-Amaya,  R. Olson,  
 T. M. Perrine,  B. Peters,  P. A. Pieniazek,  A. Prociuk,  Y. M. Rhee,  
 J. Ritchie,  M. A. Rohrdanz,  E. Rosta,  N. J. Russ,  H. F. Schaefer III,  
 M. W. Schmidt,  N. E. Schultz,  S. Sharma,  N. Shenvi,  C. D. Sherrill,  
 A. C. Simmonett,  A. Sodt,  T. Stein,  D. Stuck,  K. S. Thanthiriwatte,  
 V. Vanovschi,  L. Vogt,  Tao Wang,  A. Warshel,  M. A. Watson,  
 C. F. Williams,  Q. Wu,  X. Xu,  Jun Yang,  W. Zhang,  Yan Zhao

 Please cite Q-Chem as follows:
 Y. Shao et al., Mol. Phys. 113, 184-215 (2015)
 DOI: 10.1080/00268976.2014.952696

 Q-Chem 5.4.1 for Intel X86 EM64T Linux

 Parts of Q-Chem use Armadillo 9.800.1 (Horizon Scraper).
 http://arma.sourceforge.net/

 Q-Chem begins on Fri Jul  1 17:44:12 2022  

 Host: gadi-cpu-clx-0708.gadi.nci.org.au
0

     Scratch files written to /jobfs/49940881.gadi-pbs/qchem1943158//
 Processing $rem in /apps/qchem/5.4.1/config/preferences:
 Processing $rem in /home/561/yj5695/.qchemrc:
 Symmetry turned off for PCM/SM12/SMD calculation
 Method-specific promolecule density matrix will be built for SM12 calculation

 Checking the input file for inconsistencies... 	...done.

--------------------------------------------------------------
User input:
--------------------------------------------------------------
$molecule
0  1
C -1.6321618895  1.0851711847 -0.9007933789
C -2.7901117729  0.5984521024 -1.5525963191
C -4.149443618  0.5259019794 -0.8910225429
C -2.7210945351  0.1771272049 -2.8651907278
H -3.605783696 -0.1941086282 -3.372220453
C -1.4999045505  0.2093700462 -3.568140748
C -0.355126547  0.6966111169 -2.9146896754
C  0.9074247522  0.8573258338 -3.6828305754
C -0.4316046949  1.1290460131 -1.5957543086
S -1.5794131576  1.6748886602  0.7847382408
O -0.2967220974  2.3565556926  0.947600638
O -2.8136414969  2.4040051603  1.0624551941
N -1.5339341733  0.3997845073  1.8288271048
H -0.6961853356 -0.1694426011  1.694900983
H -2.376980138 -0.173766847  1.788059821
N -1.4160574562 -0.176672209 -4.8775003192
C -0.1161405388 -0.6510128561 -5.3328861195
N  0.8757850853  0.3407119462 -4.9310928202
H -2.2070190226 -0.7108391699 -5.2310630498
F -4.9823591268 -0.2888080582 -1.5551112968
F -4.7528616715  1.7228476535 -0.8321573463
F -4.080334552  0.0479222884  0.3670893531
H  1.7436007209  0.3743862387 -5.4612862994
C -0.0909895049 -0.8304185808 -6.8462806801
C -1.0808292395 -1.8773527175 -7.2973634479
C -0.7936999331 -3.2379280594 -7.1309751916
H  0.1632553732 -3.5333088332 -6.7055628824
C -1.7164939014 -4.2103233372 -7.5123409765
H -1.4780817738 -5.2621196006 -7.3818137052
C -2.9422671209 -3.8336865177 -8.0659199656
H -3.6605498407 -4.5910164052 -8.366556579
C -3.2373169573 -2.4815428267 -8.2355682395
H -4.1871130447 -2.1801964378 -8.6681778873
C -2.3109131254 -1.5097406333 -7.851928337
H -2.5413730626 -0.4553650468 -7.9889602893
H  0.1150815757 -1.6119748269 -4.8474197099
H  0.9262046805 -1.1299182001 -7.1226371829
H -0.3059057502  0.1343116813 -7.3175328102
O  1.8813242654  1.4760281688 -3.2371346018
H  0.4620948717  1.5182549142 -1.1190098684
$end

$rem
jobtype sp
exchange M062X
basis 6-31+G*
SMX_GAS_PHASE = TRUE
solvent_method sm12
$end

$smx
solvent water
charges mk
$end
--------------------------------------------------------------
 ----------------------------------------------------------------
             Standard Nuclear Orientation (Angstroms)
    I     Atom           X                Y                Z
 ----------------------------------------------------------------
    1      C      -1.6321618895     1.0851711847    -0.9007933789
    2      C      -2.7901117729     0.5984521024    -1.5525963191
    3      C      -4.1494436180     0.5259019794    -0.8910225429
    4      C      -2.7210945351     0.1771272049    -2.8651907278
    5      H      -3.6057836960    -0.1941086282    -3.3722204530
    6      C      -1.4999045505     0.2093700462    -3.5681407480
    7      C      -0.3551265470     0.6966111169    -2.9146896754
    8      C       0.9074247522     0.8573258338    -3.6828305754
    9      C      -0.4316046949     1.1290460131    -1.5957543086
   10      S      -1.5794131576     1.6748886602     0.7847382408
   11      O      -0.2967220974     2.3565556926     0.9476006380
   12      O      -2.8136414969     2.4040051603     1.0624551941
   13      N      -1.5339341733     0.3997845073     1.8288271048
   14      H      -0.6961853356    -0.1694426011     1.6949009830
   15      H      -2.3769801380    -0.1737668470     1.7880598210
   16      N      -1.4160574562    -0.1766722090    -4.8775003192
   17      C      -0.1161405388    -0.6510128561    -5.3328861195
   18      N       0.8757850853     0.3407119462    -4.9310928202
   19      H      -2.2070190226    -0.7108391699    -5.2310630498
   20      F      -4.9823591268    -0.2888080582    -1.5551112968
   21      F      -4.7528616715     1.7228476535    -0.8321573463
   22      F      -4.0803345520     0.0479222884     0.3670893531
   23      H       1.7436007209     0.3743862387    -5.4612862994
   24      C      -0.0909895049    -0.8304185808    -6.8462806801
   25      C      -1.0808292395    -1.8773527175    -7.2973634479
   26      C      -0.7936999331    -3.2379280594    -7.1309751916
   27      H       0.1632553732    -3.5333088332    -6.7055628824
   28      C      -1.7164939014    -4.2103233372    -7.5123409765
   29      H      -1.4780817738    -5.2621196006    -7.3818137052
   30      C      -2.9422671209    -3.8336865177    -8.0659199656
   31      H      -3.6605498407    -4.5910164052    -8.3665565790
   32      C      -3.2373169573    -2.4815428267    -8.2355682395
   33      H      -4.1871130447    -2.1801964378    -8.6681778873
   34      C      -2.3109131254    -1.5097406333    -7.8519283370
   35      H      -2.5413730626    -0.4553650468    -7.9889602893
   36      H       0.1150815757    -1.6119748269    -4.8474197099
   37      H       0.9262046805    -1.1299182001    -7.1226371829
   38      H      -0.3059057502     0.1343116813    -7.3175328102
   39      O       1.8813242654     1.4760281688    -3.2371346018
   40      H       0.4620948717     1.5182549142    -1.1190098684
 ----------------------------------------------------------------
 Nuclear Repulsion Energy =        2565.48536190 hartrees
 There are       99 alpha and       99 beta electrons
 Requested basis set is 6-31+G(d)
 There are 159 shells and 526 basis functions

 Total QAlloc Memory Limit   2000 MB
 Mega-Array Size       188 MB
 MEM_STATIC part       192 MB
 A cutoff of  1.0D-08 yielded   7437 shell pairs
 There are     87724 function pairs
 Smallest overlap matrix eigenvalue = 2.21E-07

 Q-Chem warning in module stvman/mkSTV.C, line 323:

 Overlap eigenvalue is smaller than square root of threshold
 Use THRESH >= 12 to get rid of this warning

 Linear dependence detected in AO basis
 Tighter screening thresholds may be required for diffuse basis sets
 Use S2THRESH > 14 and THRESH = 14 in case of SCF convergence issues
 Number of orthogonalized atomic orbitals = 523
 Maximum deviation from orthogonality = 7.305E-11

 Scale SEOQF with 1.000000e-01/1.000000e-02/1.000000e-02

 Standard Electronic Orientation quadrupole field applied
 Nucleus-field energy     =     0.0000000063 hartrees
 ================ Generating on-the-fly Promolecule Density  ================
Attempting to make child job directory: /jobfs/49940881.gadi-pbs/qchem1943158//Frg1/
Attempting to make child job directory: /jobfs/49940881.gadi-pbs/qchem1943158//Frg2/
Attempting to make child job directory: /jobfs/49940881.gadi-pbs/qchem1943158//Frg3/
Attempting to make child job directory: /jobfs/49940881.gadi-pbs/qchem1943158//Frg4/
Attempting to make child job directory: /jobfs/49940881.gadi-pbs/qchem1943158//Frg5/
Attempting to make child job directory: /jobfs/49940881.gadi-pbs/qchem1943158//Frg6/
Creating input file /jobfs/49940881.gadi-pbs/qchem1943158/Frg1.input
using default PutDataFrgm: nothing
calling putenv with: QCSCRATCH=/jobfs/49940881.gadi-pbs/qchem1943158/ 
Spawning Job For Fragment 0
Done Job For Fragment 0
calling putenv with: QCSCRATCH=/jobfs/49940881.gadi-pbs 
calling putenv with: QCTHREADS=8 
Creating input file /jobfs/49940881.gadi-pbs/qchem1943158/Frg2.input
using default PutDataFrgm: nothing
calling putenv with: QCSCRATCH=/jobfs/49940881.gadi-pbs/qchem1943158/ 
Spawning Job For Fragment 1
Done Job For Fragment 1
calling putenv with: QCSCRATCH=/jobfs/49940881.gadi-pbs 
calling putenv with: QCTHREADS=8 
Creating input file /jobfs/49940881.gadi-pbs/qchem1943158/Frg3.input
using default PutDataFrgm: nothing
calling putenv with: QCSCRATCH=/jobfs/49940881.gadi-pbs/qchem1943158/ 
Spawning Job For Fragment 2
Done Job For Fragment 2
calling putenv with: QCSCRATCH=/jobfs/49940881.gadi-pbs 
calling putenv with: QCTHREADS=8 
Creating input file /jobfs/49940881.gadi-pbs/qchem1943158/Frg4.input
using default PutDataFrgm: nothing
calling putenv with: QCSCRATCH=/jobfs/49940881.gadi-pbs/qchem1943158/ 
Spawning Job For Fragment 3
Done Job For Fragment 3
calling putenv with: QCSCRATCH=/jobfs/49940881.gadi-pbs 
calling putenv with: QCTHREADS=8 
Creating input file /jobfs/49940881.gadi-pbs/qchem1943158/Frg5.input
using default PutDataFrgm: nothing
calling putenv with: QCSCRATCH=/jobfs/49940881.gadi-pbs/qchem1943158/ 
Spawning Job For Fragment 4
Done Job For Fragment 4
calling putenv with: QCSCRATCH=/jobfs/49940881.gadi-pbs 
calling putenv with: QCTHREADS=8 
Creating input file /jobfs/49940881.gadi-pbs/qchem1943158/Frg6.input
using default PutDataFrgm: nothing
calling putenv with: QCSCRATCH=/jobfs/49940881.gadi-pbs/qchem1943158/ 
Spawning Job For Fragment 5
Done Job For Fragment 5
calling putenv with: QCSCRATCH=/jobfs/49940881.gadi-pbs 
calling putenv with: QCTHREADS=8 
 Time for running child jobs:  CPU 0.78 s  wall 2.58 s
 ============= Method Specific Promolecule Density Constructed =============
 Guess from superposition of atomic densities
 Warning:  Energy on first SCF cycle will be non-variational
 SAD guess density has 198.000000 electrons

 -----------------------------------------------------------------------
  General SCF calculation program by
  Eric Jon Sundstrom, Paul Horn, Yuezhi Mao, Dmitri Zuev, Alec White,
  David Stuck, Shaama M.S., Shane Yost, Joonho Lee, David Small,
  Daniel Levine, Susi Lehtola, Hugh Burton, Evgeny Epifanovsky,
  Bang C. Huynh
 -----------------------------------------------------------------------
 Exchange:     0.5400 Hartree-Fock + 1.0000 M06-2X
 Correlation:  1.0000 M06-2X
 Using SG-3 standard quadrature grid
 using 8 threads for integral computing
 -------------------------------------------------------
 OpenMP Integral computing Module                
 Release: version 1.0, May 2013, Q-Chem Inc. Pittsburgh 
 -------------------------------------------------------
 A restricted SCF calculation will be
 performed using DIIS
 SCF converges when DIIS error is below 1.0e-05
 ---------------------------------------
  Cycle       Energy         DIIS error
 ---------------------------------------
    1   -1713.3495580162      3.29e-02  
    2   -1704.7614031839      4.01e-03  
    3   -1704.4316524433      5.62e-03  
    4   -1705.2213659367      7.74e-04  
    5   -1705.2368016123      3.03e-04  
    6   -1705.2392003998      8.16e-05  
    7   -1705.2393697664      2.99e-05  
    8   -1705.2393973534      9.51e-06  Convergence criterion met
 ---------------------------------------
 SCF time:   CPU 393.16s  wall 51.00s 
 SCF   energy in the final basis set =    -1705.2393973534
 Total energy in the final basis set =    -1705.2393973534
 Exchange:     0.5400 Hartree-Fock + 1.0000 M06-2X
 Correlation:  1.0000 M06-2X
 Using SG-3 standard quadrature grid
 
 SM12 calculation using Merz-Singh-Kollman charges
 Citation of the SM12 model:
 Marenich, A.V.; Cramer, C.J.; Truhlar, D.G.
 J. Chem. Theory Comput. 2013, 9, 609-612.
 iSolventCode=           1
 Solvent: water                                                           
 
  Building new vdw surfaces
         Merz-Kollman ESP Net Atomic Charges

     Atom                 Charge (a.u.)
  ----------------------------------------
      1 C                    -0.143044
      2 C                    -0.115716
      3 C                     0.563265
      4 C                    -0.281551
      5 H                     0.205702
      6 C                     0.370306
      7 C                    -0.033554
      8 C                     0.518773
      9 C                    -0.151665
     10 S                     1.041360
     11 O                    -0.495041
     12 O                    -0.483877
     13 N                    -0.816419
     14 H                     0.367027
     15 H                     0.400872
     16 N                    -0.574077
     17 C                     0.263374
     18 N                    -0.473589
     19 H                     0.329990
     20 F                    -0.206527
     21 F                    -0.139918
     22 F                    -0.199162
     23 H                     0.339125
     24 C                    -0.512100
     25 C                     0.287274
     26 C                    -0.253302
     27 H                     0.168701
     28 C                    -0.155683
     29 H                     0.160653
     30 C                    -0.133560
     31 H                     0.151764
     32 C                    -0.169669
     33 H                     0.160921
     34 C                    -0.201706
     35 H                     0.146864
     36 H                     0.038119
     37 H                     0.182413
     38 H                     0.182127
     39 O                    -0.536737
     40 H                     0.198267
  ----------------------------------------
  Sum of atomic charges =     0.000000

  Related Dipole Moment =    12.7389 (X -0.5730 Y -9.3917 Z -8.5877)


 Charges (in A.U.) from Merz-Kollman fitting 
 -----------------------------------------------
 Center     Atomic                  MZ       
 Number     Number                  Charge
 -----------------------------------------------
    1          6                   -0.143044
    2          6                   -0.115716
    3          6                    0.563265
    4          6                   -0.281551
    5          1                    0.205702
    6          6                    0.370306
    7          6                   -0.033554
    8          6                    0.518773
    9          6                   -0.151665
   10         16                    1.041360
   11          8                   -0.495041
   12          8                   -0.483877
   13          7                   -0.816419
   14          1                    0.367027
   15          1                    0.400872
   16          7                   -0.574077
   17          6                    0.263374
   18          7                   -0.473589
   19          1                    0.329990
   20          9                   -0.206527
   21          9                   -0.139918
   22          9                   -0.199162
   23          1                    0.339125
   24          6                   -0.512100
   25          6                    0.287274
   26          6                   -0.253302
   27          1                    0.168701
   28          6                   -0.155683
   29          1                    0.160653
   30          6                   -0.133560
   31          1                    0.151764
   32          6                   -0.169669
   33          1                    0.160921
   34          6                   -0.201706
   35          1                    0.146864
   36          1                    0.038119
   37          1                    0.182413
   38          1                    0.182127
   39          8                   -0.536737
   40          1                    0.198267
 -----------------------------------------------
 A restricted SCF calculation will be
 performed using Roothaan-Hall, DIIS
 SCF converges when DIIS error is below 1.0e-05
 ---------------------------------------
  Cycle       Energy         DIIS error
 ---------------------------------------
         Merz-Kollman ESP Net Atomic Charges

     Atom                 Charge (a.u.)
  ----------------------------------------
      1 C                    -0.150936
      2 C                    -0.148801
      3 C                     0.568533
      4 C                    -0.246504
      5 H                     0.217403
      6 C                     0.400390
      7 C                    -0.032504
      8 C                     0.541287
      9 C                    -0.165065
     10 S                     1.079890
     11 O                    -0.546874
     12 O                    -0.540145
     13 N                    -0.812988
     14 H                     0.386337
     15 H                     0.418916
     16 N                    -0.553081
     17 C                     0.266302
     18 N                    -0.436921
     19 H                     0.340441
     20 F                    -0.203037
     21 F                    -0.152881
     22 F                    -0.201268
     23 H                     0.354292
     24 C                    -0.494440
     25 C                     0.308668
     26 C                    -0.256953
     27 H                     0.179545
     28 C                    -0.186404
     29 H                     0.173111
     30 C                    -0.161514
     31 H                     0.163870
     32 C                    -0.191196
     33 H                     0.171868
     34 C                    -0.207287
     35 H                     0.156149
     36 H                     0.038784
     37 H                     0.187209
     38 H                     0.180684
     39 O                    -0.638218
     40 H                     0.193338
  ----------------------------------------
  Sum of atomic charges =     0.000000

  Related Dipole Moment =    15.1992 (X -0.9904 Y -10.9424 Z -10.5023)


 Charges (in A.U.) from Merz-Kollman fitting 
 -----------------------------------------------
 Center     Atomic                  MZ       
 Number     Number                  Charge
 -----------------------------------------------
    1          6                   -0.150936
    2          6                   -0.148801
    3          6                    0.568533
    4          6                   -0.246504
    5          1                    0.217403
    6          6                    0.400390
    7          6                   -0.032504
    8          6                    0.541287
    9          6                   -0.165065
   10         16                    1.079890
   11          8                   -0.546874
   12          8                   -0.540145
   13          7                   -0.812988
   14          1                    0.386337
   15          1                    0.418916
   16          7                   -0.553081
   17          6                    0.266302
   18          7                   -0.436921
   19          1                    0.340441
   20          9                   -0.203037
   21          9                   -0.152881
   22          9                   -0.201268
   23          1                    0.354292
   24          6                   -0.494440
   25          6                    0.308668
   26          6                   -0.256953
   27          1                    0.179545
   28          6                   -0.186404
   29          1                    0.173111
   30          6                   -0.161514
   31          1                    0.163870
   32          6                   -0.191196
   33          1                    0.171868
   34          6                   -0.207287
   35          1                    0.156149
   36          1                    0.038784
   37          1                    0.187209
   38          1                    0.180684
   39          8                   -0.638218
   40          1                    0.193338
 -----------------------------------------------
    1   -1705.2393962903      3.35e-04  Roothaan Step
 ---------------------------------------
  Cycle       Energy         DIIS error
 ---------------------------------------
         Merz-Kollman ESP Net Atomic Charges

     Atom                 Charge (a.u.)
  ----------------------------------------
      1 C                    -0.102935
      2 C                    -0.179162
      3 C                     0.576783
      4 C                    -0.251229
      5 H                     0.227729
      6 C                     0.346515
      7 C                    -0.020422
      8 C                     0.514803
      9 C                    -0.161521
     10 S                     1.052517
     11 O                    -0.529891
     12 O                    -0.513833
     13 N                    -0.829542
     14 H                     0.383412
     15 H                     0.418673
     16 N                    -0.534942
     17 C                     0.197527
     18 N                    -0.456344
     19 H                     0.335671
     20 F                    -0.209488
     21 F                    -0.144736
     22 F                    -0.203938
     23 H                     0.363083
     24 C                    -0.509343
     25 C                     0.301640
     26 C                    -0.261199
     27 H                     0.180661
     28 C                    -0.172095
     29 H                     0.167041
     30 C                    -0.141852
     31 H                     0.156592
     32 C                    -0.183299
     33 H                     0.166918
     34 C                    -0.203263
     35 H                     0.154050
     36 H                     0.061687
     37 H                     0.202211
     38 H                     0.188721
     39 O                    -0.582531
     40 H                     0.195333
  ----------------------------------------
  Sum of atomic charges =     0.000000

  Related Dipole Moment =    14.5360 (X -0.6878 Y -10.4321 Z -10.0991)


 Charges (in A.U.) from Merz-Kollman fitting 
 -----------------------------------------------
 Center     Atomic                  MZ       
 Number     Number                  Charge
 -----------------------------------------------
    1          6                   -0.102935
    2          6                   -0.179162
    3          6                    0.576783
    4          6                   -0.251229
    5          1                    0.227729
    6          6                    0.346515
    7          6                   -0.020422
    8          6                    0.514803
    9          6                   -0.161521
   10         16                    1.052517
   11          8                   -0.529891
   12          8                   -0.513833
   13          7                   -0.829542
   14          1                    0.383412
   15          1                    0.418673
   16          7                   -0.534942
   17          6                    0.197527
   18          7                   -0.456344
   19          1                    0.335671
   20          9                   -0.209488
   21          9                   -0.144736
   22          9                   -0.203938
   23          1                    0.363083
   24          6                   -0.509343
   25          6                    0.301640
   26          6                   -0.261199
   27          1                    0.180661
   28          6                   -0.172095
   29          1                    0.167041
   30          6                   -0.141852
   31          1                    0.156592
   32          6                   -0.183299
   33          1                    0.166918
   34          6                   -0.203263
   35          1                    0.154050
   36          1                    0.061687
   37          1                    0.202211
   38          1                    0.188721
   39          8                   -0.582531
   40          1                    0.195333
 -----------------------------------------------
    1   -1705.2260866590      2.84e-04  
         Merz-Kollman ESP Net Atomic Charges

     Atom                 Charge (a.u.)
  ----------------------------------------
      1 C                    -0.129812
      2 C                    -0.168859
      3 C                     0.571665
      4 C                    -0.250832
      5 H                     0.224699
      6 C                     0.377257
      7 C                    -0.021740
      8 C                     0.534879
      9 C                    -0.165782
     10 S                     1.082283
     11 O                    -0.546093
     12 O                    -0.535705
     13 N                    -0.820898
     14 H                     0.384327
     15 H                     0.418207
     16 N                    -0.537878
     17 C                     0.223883
     18 N                    -0.433110
     19 H                     0.336414
     20 F                    -0.206664
     21 F                    -0.148368
     22 F                    -0.201681
     23 H                     0.357940
     24 C                    -0.507993
     25 C                     0.312315
     26 C                    -0.260702
     27 H                     0.181131
     28 C                    -0.179840
     29 H                     0.170101
     30 C                    -0.153377
     31 H                     0.160433
     32 C                    -0.187592
     33 H                     0.169491
     34 C                    -0.206502
     35 H                     0.155688
     36 H                     0.052751
     37 H                     0.197360
     38 H                     0.187116
     39 O                    -0.630019
     40 H                     0.195506
  ----------------------------------------
  Sum of atomic charges =     0.000000

  Related Dipole Moment =    15.1592 (X -0.8762 Y -10.8410 Z -10.5595)


 Charges (in A.U.) from Merz-Kollman fitting 
 -----------------------------------------------
 Center     Atomic                  MZ       
 Number     Number                  Charge
 -----------------------------------------------
    1          6                   -0.129812
    2          6                   -0.168859
    3          6                    0.571665
    4          6                   -0.250832
    5          1                    0.224699
    6          6                    0.377257
    7          6                   -0.021740
    8          6                    0.534879
    9          6                   -0.165782
   10         16                    1.082283
   11          8                   -0.546093
   12          8                   -0.535705
   13          7                   -0.820898
   14          1                    0.384327
   15          1                    0.418207
   16          7                   -0.537878
   17          6                    0.223883
   18          7                   -0.433110
   19          1                    0.336414
   20          9                   -0.206664
   21          9                   -0.148368
   22          9                   -0.201681
   23          1                    0.357940
   24          6                   -0.507993
   25          6                    0.312315
   26          6                   -0.260702
   27          1                    0.181131
   28          6                   -0.179840
   29          1                    0.170101
   30          6                   -0.153377
   31          1                    0.160433
   32          6                   -0.187592
   33          1                    0.169491
   34          6                   -0.206502
   35          1                    0.155688
   36          1                    0.052751
   37          1                    0.197360
   38          1                    0.187116
   39          8                   -0.630019
   40          1                    0.195506
 -----------------------------------------------
    2   -1705.2254921467      3.68e-04  
         Merz-Kollman ESP Net Atomic Charges

     Atom                 Charge (a.u.)
  ----------------------------------------
      1 C                    -0.130967
      2 C                    -0.168916
      3 C                     0.572359
      4 C                    -0.246640
      5 H                     0.224220
      6 C                     0.378214
      7 C                    -0.024218
      8 C                     0.528173
      9 C                    -0.164110
     10 S                     1.078395
     11 O                    -0.546457
     12 O                    -0.534610
     13 N                    -0.821279
     14 H                     0.384853
     15 H                     0.419073
     16 N                    -0.538073
     17 C                     0.225059
     18 N                    -0.435798
     19 H                     0.337776
     20 F                    -0.206700
     21 F                    -0.149283
     22 F                    -0.202003
     23 H                     0.359437
     24 C                    -0.504689
     25 C                     0.312180
     26 C                    -0.260395
     27 H                     0.181560
     28 C                    -0.181209
     29 H                     0.170552
     30 C                    -0.154903
     31 H                     0.161055
     32 C                    -0.188563
     33 H                     0.170007
     34 C                    -0.207033
     35 H                     0.156327
     36 H                     0.053175
     37 H                     0.196911
     38 H                     0.186661
     39 O                    -0.625657
     40 H                     0.195515
  ----------------------------------------
  Sum of atomic charges =     0.000000

  Related Dipole Moment =    15.2127 (X -0.8818 Y -10.8643 Z -10.6120)


 Charges (in A.U.) from Merz-Kollman fitting 
 -----------------------------------------------
 Center     Atomic                  MZ       
 Number     Number                  Charge
 -----------------------------------------------
    1          6                   -0.130967
    2          6                   -0.168916
    3          6                    0.572359
    4          6                   -0.246640
    5          1                    0.224220
    6          6                    0.378214
    7          6                   -0.024218
    8          6                    0.528173
    9          6                   -0.164110
   10         16                    1.078395
   11          8                   -0.546457
   12          8                   -0.534610
   13          7                   -0.821279
   14          1                    0.384853
   15          1                    0.419073
   16          7                   -0.538073
   17          6                    0.225059
   18          7                   -0.435798
   19          1                    0.337776
   20          9                   -0.206700
   21          9                   -0.149283
   22          9                   -0.202003
   23          1                    0.359437
   24          6                   -0.504689
   25          6                    0.312180
   26          6                   -0.260395
   27          1                    0.181560
   28          6                   -0.181209
   29          1                    0.170552
   30          6                   -0.154903
   31          1                    0.161055
   32          6                   -0.188563
   33          1                    0.170007
   34          6                   -0.207033
   35          1                    0.156327
   36          1                    0.053175
   37          1                    0.196911
   38          1                    0.186661
   39          8                   -0.625657
   40          1                    0.195515
 -----------------------------------------------
    3   -1705.2259335210      3.93e-05  
         Merz-Kollman ESP Net Atomic Charges

     Atom                 Charge (a.u.)
  ----------------------------------------
      1 C                    -0.129461
      2 C                    -0.170628
      3 C                     0.573104
      4 C                    -0.248420
      5 H                     0.225166
      6 C                     0.376180
      7 C                    -0.021150
      8 C                     0.529011
      9 C                    -0.165014
     10 S                     1.078871
     11 O                    -0.546105
     12 O                    -0.534436
     13 N                    -0.822208
     14 H                     0.384579
     15 H                     0.419031
     16 N                    -0.536979
     17 C                     0.222344
     18 N                    -0.433028
     19 H                     0.337734
     20 F                    -0.207166
     21 F                    -0.148975
     22 F                    -0.202167
     23 H                     0.359275
     24 C                    -0.506847
     25 C                     0.311907
     26 C                    -0.260332
     27 H                     0.181500
     28 C                    -0.180256
     29 H                     0.169946
     30 C                    -0.154105
     31 H                     0.160566
     32 C                    -0.187849
     33 H                     0.169500
     34 C                    -0.207262
     35 H                     0.156269
     36 H                     0.054267
     37 H                     0.197904
     38 H                     0.187539
     39 O                    -0.628319
     40 H                     0.196016
  ----------------------------------------
  Sum of atomic charges =     0.000000

  Related Dipole Moment =    15.2192 (X -0.8708 Y -10.8584 Z -10.6282)


 Charges (in A.U.) from Merz-Kollman fitting 
 -----------------------------------------------
 Center     Atomic                  MZ       
 Number     Number                  Charge
 -----------------------------------------------
    1          6                   -0.129461
    2          6                   -0.170628
    3          6                    0.573104
    4          6                   -0.248420
    5          1                    0.225166
    6          6                    0.376180
    7          6                   -0.021150
    8          6                    0.529011
    9          6                   -0.165014
   10         16                    1.078871
   11          8                   -0.546105
   12          8                   -0.534436
   13          7                   -0.822208
   14          1                    0.384579
   15          1                    0.419031
   16          7                   -0.536979
   17          6                    0.222344
   18          7                   -0.433028
   19          1                    0.337734
   20          9                   -0.207166
   21          9                   -0.148975
   22          9                   -0.202167
   23          1                    0.359275
   24          6                   -0.506847
   25          6                    0.311907
   26          6                   -0.260332
   27          1                    0.181500
   28          6                   -0.180256
   29          1                    0.169946
   30          6                   -0.154105
   31          1                    0.160566
   32          6                   -0.187849
   33          1                    0.169500
   34          6                   -0.207262
   35          1                    0.156269
   36          1                    0.054267
   37          1                    0.197904
   38          1                    0.187539
   39          8                   -0.628319
   40          1                    0.196016
 -----------------------------------------------
    4   -1705.2250756604      2.06e-05  
    5   -1705.2239989950      6.72e-06  Convergence criterion met
 ---------------------------------------
 SCF time:   CPU 359.19s  wall 48.00s 
(0)  E-EN(g) gas-phase elect-nuc energy                -1705.239397353 a.u.
(1)  E-EN(liq) elect-nuc energy of solute              -1705.223998995 a.u.
(2)  G-P(liq) polarization free energy of solvation           -32.7432 kcal/mol
(3)  G-ENP(liq) elect-nuc-pol free energy of system    -1705.276178593 a.u.
(4)  G-CDS(liq) cavity-dispersion-solvent structure 
     free energy                                                1.7843 kcal/mol
(5)  G-P-CDS(liq) = G-P(liq) + G-CDS(liq) = (2) + (4)         -30.9588 kcal/mol
(6)  G-S(liq) free energy of system = (1) + (5)        -1705.273335059 a.u.
(7)  DeltaE-EN(liq) elect-nuc reorganization
     energy of solute molecule (7) = (1) - (0)                  9.6626 kcal/mol
(8)  DeltaG-ENP(liq) elect-nuc-pol free energy
     of solvation (8) = (3) - (0)                             -23.0806 kcal/mol
(9)  DeltaG-S(liq) free energy of  solvation
     (9) = (6) - (0)                                          -21.2962 kcal/mol
 SCF   energy in the final basis set =    -1705.2733350592
 Total energy in the final basis set =    -1705.2733350592
 
 --------------------------------------------------------------
 
                    Orbital Energies (a.u.)
 --------------------------------------------------------------
 
 Alpha MOs
 -- Occupied --
-90.1807 -25.3222 -25.3214 -25.3135 -19.6606 -19.6593 -19.6328 -14.8077
-14.8069 -14.8069 -10.8361 -10.6808 -10.6480 -10.6406 -10.6263 -10.6170
-10.5988 -10.5955 -10.5909 -10.5746 -10.5679 -10.5649 -10.5647 -10.5639
-10.5638 -10.5631  -8.4941  -6.4163  -6.4160  -6.4151  -1.4884  -1.3964
 -1.3915  -1.2630  -1.1803  -1.1484  -1.1127  -1.0389  -1.0362  -1.0044
 -0.9759  -0.9288  -0.9096  -0.8807  -0.8532  -0.8434  -0.8290  -0.7785
 -0.7723  -0.7430  -0.7308  -0.7114  -0.7064  -0.7040  -0.7011  -0.6789
 -0.6736  -0.6379  -0.6275  -0.6223  -0.6145  -0.5996  -0.5974  -0.5914
 -0.5881  -0.5774  -0.5574  -0.5536  -0.5523  -0.5496  -0.5386  -0.5357
 -0.5309  -0.5292  -0.5256  -0.5218  -0.5087  -0.5008  -0.4957  -0.4874
 -0.4797  -0.4755  -0.4545  -0.4473  -0.4395  -0.4380  -0.4242  -0.4205
 -0.4101  -0.4068  -0.4022  -0.3936  -0.3857  -0.3608  -0.3526  -0.3427
 -0.3181  -0.3120  -0.2908
 -- Virtual --
 -0.2542  -0.1231  -0.0498  -0.0197  -0.0039   0.0052   0.0077   0.0090
  0.0216   0.0266   0.0296   0.0357   0.0380   0.0423   0.0432   0.0435
  0.0518   0.0562   0.0588   0.0607   0.0682   0.0708   0.0760   0.0785
  0.0820   0.0894   0.0904   0.0925   0.0951   0.1005   0.1034   0.1046
  0.1111   0.1168   0.1201   0.1257   0.1269   0.1292   0.1326   0.1366
  0.1405   0.1430   0.1467   0.1489   0.1530   0.1534   0.1580   0.1620
  0.1660   0.1688   0.1692   0.1723   0.1804   0.1817   0.1861   0.1875
  0.1906   0.1931   0.1969   0.1986   0.2030   0.2079   0.2090   0.2110
  0.2159   0.2183   0.2213   0.2234   0.2250   0.2276   0.2311   0.2350
  0.2372   0.2387   0.2449   0.2473   0.2508   0.2533   0.2553   0.2597
  0.2602   0.2650   0.2694   0.2715   0.2747   0.2795   0.2825   0.2846
  0.2862   0.2900   0.2918   0.2957   0.2984   0.2998   0.3029   0.3079
  0.3103   0.3134   0.3141   0.3191   0.3213   0.3270   0.3287   0.3318
  0.3375   0.3402   0.3467   0.3472   0.3490   0.3552   0.3568   0.3632
  0.3643   0.3699   0.3722   0.3751   0.3785   0.3817   0.3864   0.3873
  0.3947   0.4027   0.4045   0.4074   0.4120   0.4189   0.4205   0.4247
  0.4311   0.4405   0.4430   0.4441   0.4593   0.4625   0.4673   0.4811
  0.4837   0.4899   0.4973   0.5111   0.5188   0.5252   0.5383   0.5420
  0.5543   0.5872   0.6097   0.6180   0.6441   0.6476   0.6518   0.6786
  0.6912   0.7005   0.7026   0.7138   0.7231   0.7255   0.7326   0.7389
  0.7479   0.7649   0.7663   0.7751   0.7772   0.7844   0.7895   0.7944
  0.8084   0.8118   0.8229   0.8252   0.8328   0.8383   0.8436   0.8562
  0.8615   0.8699   0.8717   0.8879   0.8908   0.9031   0.9060   0.9156
  0.9285   0.9352   0.9457   0.9478   0.9574   0.9636   0.9812   0.9854
  0.9875   0.9974   0.9997   1.0086   1.0177   1.0242   1.0316   1.0535
  1.0611   1.0632   1.0785   1.0841   1.0886   1.0978   1.1034   1.1140
  1.1250   1.1251   1.1354   1.1367   1.1398   1.1584   1.1615   1.1641
  1.1767   1.1795   1.1864   1.1960   1.2103   1.2156   1.2221   1.2249
  1.2367   1.2421   1.2542   1.2725   1.2769   1.2838   1.2945   1.2994
  1.3093   1.3154   1.3169   1.3262   1.3311   1.3630   1.3683   1.3730
  1.3803   1.3902   1.3972   1.4031   1.4063   1.4090   1.4167   1.4318
  1.4334   1.4519   1.4672   1.4783   1.4844   1.4952   1.5025   1.5134
  1.5230   1.5243   1.5300   1.5327   1.5513   1.5535   1.5625   1.5995
  1.6103   1.6163   1.6285   1.6461   1.6588   1.6689   1.6846   1.7002
  1.7092   1.7142   1.7295   1.7330   1.7385   1.7502   1.7556   1.7636
  1.7696   1.7777   1.7852   1.7908   1.8058   1.8216   1.8288   1.8331
  1.8400   1.8534   1.8607   1.8681   1.8743   1.8781   1.8864   1.8953
  1.9018   1.9087   1.9186   1.9217   1.9317   1.9324   1.9488   1.9506
  1.9550   1.9665   1.9756   1.9915   2.0054   2.0134   2.0182   2.0247
  2.0383   2.0531   2.0599   2.0683   2.0787   2.0834   2.0903   2.0958
  2.1100   2.1204   2.1218   2.1314   2.1430   2.1470   2.1491   2.1510
  2.1622   2.1696   2.1792   2.1841   2.1966   2.2019   2.2133   2.2242
  2.2413   2.2421   2.2520   2.2637   2.2711   2.2957   2.3020   2.3123
  2.3254   2.3313   2.3441   2.3847   2.3964   2.4041   2.4194   2.4351
  2.4578   2.4696   2.4851   2.4930   2.5100   2.5174   2.5323   2.5589
  2.5687   2.5904   2.5996   2.6225   2.6389   2.6540   2.6671   2.6826
  2.6984   2.7136   2.7410   2.7483   2.7680   2.7709   2.7764   2.7945
  2.8008   2.8112   2.8421   2.8595   2.8908   2.9061   2.9146   2.9469
  2.9599   2.9639   3.0020   3.0664   3.0709   3.0985   3.1443   3.1982
  3.2030   3.2817   3.2999   3.3323   3.4081   3.4171   3.9413   4.0946
  4.2203   4.2475   4.2817   4.2893   4.3082   4.3275   4.3363   4.3554
  4.3586   4.3879   4.3963   4.4184   4.4306   4.4966   4.5137   4.5405
  4.6212   4.6532   4.7421   4.7653   4.8598   5.8399   6.1030   7.0471
 --------------------------------------------------------------
 
          Ground-State Mulliken Net Atomic Charges

     Atom                 Charge (a.u.)
  ----------------------------------------
      1 C                    -2.913451
      2 C                     0.232921
      3 C                     1.165981
      4 C                    -0.846099
      5 H                     0.311034
      6 C                     0.922937
      7 C                     0.999295
      8 C                     1.070605
      9 C                    -1.174537
     10 S                     1.637303
     11 O                    -0.645077
     12 O                    -0.773532
     13 N                    -0.888999
     14 H                     0.519977
     15 H                     0.513055
     16 N                    -0.298362
     17 C                     0.084422
     18 N                    -0.411350
     19 H                     0.481285
     20 F                    -0.304356
     21 F                    -0.286863
     22 F                    -0.329908
     23 H                     0.512264
     24 C                     0.722174
     25 C                    -0.055785
     26 C                     0.324486
     27 H                     0.253017
     28 C                    -0.895276
     29 H                     0.247365
     30 C                    -0.822681
     31 H                     0.246779
     32 C                    -0.687650
     33 H                     0.249826
     34 C                     0.371069
     35 H                     0.257349
     36 H                     0.253534
     37 H                     0.272912
     38 H                     0.266241
     39 O                    -0.881816
     40 H                     0.299205
  ----------------------------------------
  Sum of atomic charges =    -0.000709

         Merz-Kollman ESP Net Atomic Charges

     Atom                 Charge (a.u.)
  ----------------------------------------
      1 C                    -0.129116
      2 C                    -0.171042
      3 C                     0.574161
      4 C                    -0.248344
      5 H                     0.225312
      6 C                     0.376258
      7 C                    -0.020177
      8 C                     0.528054
      9 C                    -0.166337
     10 S                     1.080600
     11 O                    -0.547003
     12 O                    -0.535027
     13 N                    -0.822097
     14 H                     0.384213
     15 H                     0.418844
     16 N                    -0.536950
     17 C                     0.222769
     18 N                    -0.432818
     19 H                     0.338206
     20 F                    -0.207518
     21 F                    -0.149330
     22 F                    -0.202350
     23 H                     0.359309
     24 C                    -0.507588
     25 C                     0.313095
     26 C                    -0.259820
     27 H                     0.181119
     28 C                    -0.180370
     29 H                     0.169589
     30 C                    -0.154560
     31 H                     0.160435
     32 C                    -0.187686
     33 H                     0.169105
     34 C                    -0.207504
     35 H                     0.156086
     36 H                     0.054492
     37 H                     0.197841
     38 H                     0.187765
     39 O                    -0.628118
     40 H                     0.196502
  ----------------------------------------
  Sum of atomic charges =     0.000000

  Related Dipole Moment =    15.2104 (X -0.8648 Y -10.8490 Z -10.6258)

 -----------------------------------------------------------------
                    Cartesian Multipole Moments
 -----------------------------------------------------------------
    Charge (ESU x 10^10)
                -0.0034
    Dipole Moment (Debye)
         X      -0.8998      Y     -10.8026      Z     -10.5432
       Tot      15.1217
    Quadrupole Moments (Debye-Ang)
        XX    -167.3962     XY       8.5638     YY    -169.8186
        XZ      19.6156     YZ      10.5868     ZZ     -95.9869
    Octopole Moments (Debye-Ang^2)
       XXX     791.3222    XXY     -53.5809    XYY     263.8255
       YYY     -52.2864    XXZ     427.1867    XYZ       5.8509
       YYZ     447.0067    XZZ     164.7667    YZZ     -91.4342
       ZZZ    1114.1792
    Hexadecapole Moments (Debye-Ang^3)
      XXXX   -5566.9153   XXXY     -51.8422   XXYY   -1483.1863
      XYYY     -85.8491   YYYY   -3008.1915   XXXZ   -1695.8172
      XXYZ    -635.5975   XYYZ    -492.4606   YYYZ   -2049.0867
      XXZZ   -3539.6866   XYZZ     119.7980   YYZZ   -3519.1919
      XZZZ   -1377.6301   YZZZ   -2014.2057   ZZZZ  -17666.9493
 -----------------------------------------------------------------
 Total job time:  102.42s(wall), 760.30s(cpu) 
 Fri Jul  1 17:45:54 2022

        *************************************************************
        *                                                           *
        *  Thank you very much for using Q-Chem.  Have a nice day.  *
        *                                                           *
        *************************************************************


