                  Welcome to Q-Chem
     A Quantum Leap Into The Future Of Chemistry


 Q-Chem 5.4 (devel), Q-Chem, Inc., Pleasanton, CA (2021)

 E. Epifanovsky,  A. T. B. Gilbert,  Xintian Feng,  Joonho Lee,  Yuezhi Mao,  
 N. Mardirossian,  P. Pokhilko,  A. White,  M. Wormit,  M. P. Coons,  
 A. L. Dempwolff,  Zhengting Gan,  D. Hait,  P. R. Horn,  L. D. Jacobson,  
 I. Kaliman,  J. Kussmann,  A. W. Lange,  Ka Un Lao,  D. S. Levine,  Jie Liu,  
 S. C. McKenzie,  A. F. Morrison,  K. Nanda,  F. Plasser,  D. R. Rehn,  
 M. L. Vidal,  Zhi-Qiang You,  Ying Zhu,  B. Alam,  B. Albrecht,  
 A. Aldossary,  E. Alguire,  J. H. Andersen,  D. Barton,  K. Begam,  A. Behn,  
 Y. A. Bernard,  E. J. Berquist,  H. Burton,  A. Carreras,  K. Carter-Fenk,  
 R. Chakraborty,  A. D. Chien,  K. D. Closser,  V. Cofer-Shabica,  
 S. Dasgupta,  Jia Deng,  M. de Wergifosse,  M. Diedenhofen,  Hainam Do,  
 S. Ehlert,  Po-Tung Fang,  S. Fatehi,  Qingguo Feng,  T. Friedhoff,  
 J. Gayvert,  Qinghui Ge,  G. Gidofalvi,  M. Goldey,  J. Gomes,  
 C. Gonzalez-Espinoza,  S. Gulania,  A. Gunina,  M. W. D. Hanson-Heine,  
 P. H. P. Harbach,  A. W. Hauser,  M. F. Herbst,  M. Hernandez Vera,  
 M. Hodecker,  Z. C. Holden,  S. Houck,  Xunkun Huang,  Kerwin Hui,  
 B. C. Huynh,  M. Ivanov,  Hyunjun Ji,  Hanjie Jiang,  B. Kaduk,  S. Kaehler,  
 K. Khistyaev,  Jaehoon Kim,  P. Klunzinger,  Z. Koczor-Benda,  
 Joong Hoon Koh,  D. Kosenkov,  L. Koulias,  T. Kowalczyk,  C. M. Krauter,  
 K. Kue,  A. Kunitsa,  T. Kus,  A. Landau,  K. V. Lawler,  D. Lefrancois,  
 S. Lehtola,  Rain Li,  Yi-Pei Li,  Jiashu Liang,  M. Liebenthal,  
 Hung-Hsuan Lin,  You-Sheng Lin,  Fenglai Liu,  Kuan-Yu Liu,  
 M. Loipersberger,  A. Luenser,  A. Manjanath,  P. Manohar,  E. Mansoor,  
 S. F. Manzer,  Shan-Ping Mao,  A. V. Marenich,  T. Markovich,  S. Mason,  
 S. A. Maurer,  P. F. McLaughlin,  M. F. S. J. Menger,  J.-M. Mewes,  
 S. A. Mewes,  P. Morgante,  J. W. Mullinax,  K. J. Oosterbaan,  G. Paran,  
 Alexander C. Paul,  Suranjan K. Paul,  F. Pavosevic,  Zheng Pei,  S. Prager,  
 E. I. Proynov,  E. Ramos,  B. Rana,  A. E. Rask,  A. Rettig,  R. M. Richard,  
 F. Rob,  E. Rossomme,  T. Scheele,  M. Scheurer,  M. Schneider,  
 N. Sergueev,  S. M. Sharada,  W. Skomorowski,  D. W. Small,  C. J. Stein,  
 Yu-Chuan Su,  E. J. Sundstrom,  Zhen Tao,  J. Thirman,  T. Tsuchimochi,  
 N. M. Tubman,  S. P. Veccham,  O. Vydrov,  J. Wenzel,  J. Witte,  A. Yamada,  
 Kun Yao,  S. Yeganeh,  S. R. Yost,  A. Zech,  Igor Ying Zhang,  Xing Zhang,  
 Yu Zhang,  D. Zuev,  A. Aspuru-Guzik,  A. T. Bell,  N. A. Besley,  
 K. B. Bravaya,  B. R. Brooks,  D. Casanova,  Jeng-Da Chai,  S. Coriani,  
 C. J. Cramer,  A. E. DePrince, III,  R. A. DiStasio Jr.,  A. Dreuw,  
 B. D. Dunietz,  T. R. Furlani,  W. A. Goddard III,  S. Grimme,  
 S. Hammes-Schiffer,  T. Head-Gordon,  W. J. Hehre,  Chao-Ping Hsu,  
 T.-C. Jagau,  Yousung Jung,  A. Klamt,  Jing Kong,  D. S. Lambrecht,  
 WanZhen Liang,  N. J. Mayhall,  C. W. McCurdy,  J. B. Neaton,  
 C. Ochsenfeld,  J. A. Parkhill,  R. Peverati,  V. A. Rassolov,  Yihan Shao,  
 L. V. Slipchenko,  T. Stauch,  R. P. Steele,  J. E. Subotnik,  
 A. J. W. Thom,  A. Tkatchenko,  D. G. Truhlar,  T. Van Voorhis,  
 T. A. Wesolowski,  K. B. Whaley,  H. L. Woodcock III,  P. M. Zimmerman,  
 S. Faraji,  P. M. W. Gill,  M. Head-Gordon,  J. M. Herbert,  A. I. Krylov

 Additional authors for Version 5.4.1: 
 S. Kotaru,  Shaozhi Li,  Xiangyuan Li,  F. Matz,  A. Molle,  Haisheng Ren,  
 Yingli Su,  Hung-Yi Tsai,  C. Utku,  Fang Wang

 Contributors to earlier versions of Q-Chem not listed above: 
 R. D. Adamson,  B. Austin,  R. Baer,  J. Baker,  G. J. O. Beran,  
 K. Brandhorst,  S. T. Brown,  E. F. C. Byrd,  A. K. Chakraborty,  
 G. K. L. Chan,  Chun-Min Chang,  Yunqing Chen,  C.-L. Cheng,  
 Siu Hung Chien,  D. M. Chipman,  D. L. Crittenden,  H. Dachsel,  
 R. J. Doerksen,  A. D. Dutoi,  R. G. Edgar,  J. Fosso-Tande,  
 L. Fusti-Molnar,  D. Ghosh,  A. Ghysels,  A. Golubeva-Zadorozhnaya,  
 J. Gonthier,  M. S. Gordon,  S. R. Gwaltney,  G. Hawkins,  J. E. Herr,  
 A. Heyden,  S. Hirata,  E. G. Hohenstein,  G. Kedziora,  F. J. Keil,  
 C. Kelley,  Jihan Kim,  R. A. King,  R. Z. Khaliullin,  P. P. Korambath,  
 W. Kurlancheek,  A. Laurent,  A. M. Lee,  M. S. Lee,  S. V. Levchenko,  
 Ching Yeh Lin,  D. Liotard,  E. Livshits,  R. C. Lochan,  I. Lotan,  
 L. A. Martinez-Martinez,  P. E. Maslen,  N. Nair,  D. P. O'Neill,  
 D. Neuhauser,  E. Neuscamman,  C. M. Oana,  R. Olivares-Amaya,  R. Olson,  
 T. M. Perrine,  B. Peters,  P. A. Pieniazek,  A. Prociuk,  Y. M. Rhee,  
 J. Ritchie,  M. A. Rohrdanz,  E. Rosta,  N. J. Russ,  H. F. Schaefer III,  
 M. W. Schmidt,  N. E. Schultz,  S. Sharma,  N. Shenvi,  C. D. Sherrill,  
 A. C. Simmonett,  A. Sodt,  T. Stein,  D. Stuck,  K. S. Thanthiriwatte,  
 V. Vanovschi,  L. Vogt,  Tao Wang,  A. Warshel,  M. A. Watson,  
 C. F. Williams,  Q. Wu,  X. Xu,  Jun Yang,  W. Zhang,  Yan Zhao

 Please cite Q-Chem as follows:
 Y. Shao et al., Mol. Phys. 113, 184-215 (2015)
 DOI: 10.1080/00268976.2014.952696

 Q-Chem 5.4.1 for Intel X86 EM64T Linux

 Parts of Q-Chem use Armadillo 9.800.1 (Horizon Scraper).
 http://arma.sourceforge.net/

 Q-Chem begins on Fri Jul  1 13:34:50 2022  

 Host: gadi-cpu-clx-0931.gadi.nci.org.au
0

     Scratch files written to /jobfs/49912904.gadi-pbs/qchem3509843//
 Processing $rem in /apps/qchem/5.4.1/config/preferences:
 Processing $rem in /home/561/yj5695/.qchemrc:
 Symmetry turned off for PCM/SM12/SMD calculation
 Method-specific promolecule density matrix will be built for SM12 calculation

 Checking the input file for inconsistencies... 	...done.

--------------------------------------------------------------
User input:
--------------------------------------------------------------
$molecule
0  1
C -1.388714  0.636752 -0.822463
C -2.519577  0.533541 -1.650867
Cl -4.12504  0.535501 -0.990988
C -2.386859  0.418849 -3.021669
H -3.264368  0.353765 -3.656297
C -1.116931  0.398572 -3.618439
C -0.003661  0.475103 -2.764304
S  1.595532  0.260955 -3.447425
C -0.122355  0.597252 -1.383942
H  0.757935  0.66363 -0.750591
S -1.493574  0.833627  0.954636
O -0.117671  0.856991  1.438998
O -2.376884  1.959578  1.236579
N -2.193496 -0.498975  1.606084
H -1.66738 -1.354902  1.418512
H -3.180768 -0.598171  1.366515
N -1.060127  0.349545 -5.007427
C  0.060907  0.589213 -5.592922
N  1.265674  0.840026 -4.979667
O  2.581916  1.139295 -2.832586
O  1.91235 -1.161965 -3.516214
H  0.097453  0.654916 -6.676478
H  2.080957  1.011373 -5.573615
$end

$rem
jobtype sp
exchange M062X
basis 6-31+G*
SMX_GAS_PHASE = TRUE
solvent_method sm12
$end

$smx
solvent water
charges mk
$end
--------------------------------------------------------------
 ----------------------------------------------------------------
             Standard Nuclear Orientation (Angstroms)
    I     Atom           X                Y                Z
 ----------------------------------------------------------------
    1      C      -1.3887140000     0.6367520000    -0.8224630000
    2      C      -2.5195770000     0.5335410000    -1.6508670000
    3      Cl     -4.1250400000     0.5355010000    -0.9909880000
    4      C      -2.3868590000     0.4188490000    -3.0216690000
    5      H      -3.2643680000     0.3537650000    -3.6562970000
    6      C      -1.1169310000     0.3985720000    -3.6184390000
    7      C      -0.0036610000     0.4751030000    -2.7643040000
    8      S       1.5955320000     0.2609550000    -3.4474250000
    9      C      -0.1223550000     0.5972520000    -1.3839420000
   10      H       0.7579350000     0.6636300000    -0.7505910000
   11      S      -1.4935740000     0.8336270000     0.9546360000
   12      O      -0.1176710000     0.8569910000     1.4389980000
   13      O      -2.3768840000     1.9595780000     1.2365790000
   14      N      -2.1934960000    -0.4989750000     1.6060840000
   15      H      -1.6673800000    -1.3549020000     1.4185120000
   16      H      -3.1807680000    -0.5981710000     1.3665150000
   17      N      -1.0601270000     0.3495450000    -5.0074270000
   18      C       0.0609070000     0.5892130000    -5.5929220000
   19      N       1.2656740000     0.8400260000    -4.9796670000
   20      O       2.5819160000     1.1392950000    -2.8325860000
   21      O       1.9123500000    -1.1619650000    -3.5162140000
   22      H       0.0974530000     0.6549160000    -6.6764780000
   23      H       2.0809570000     1.0113730000    -5.5736150000
 ----------------------------------------------------------------
 Nuclear Repulsion Energy =        1704.29105418 hartrees
 There are       75 alpha and       75 beta electrons
 Requested basis set is 6-31+G(d)
 There are 100 shells and 347 basis functions

 Total QAlloc Memory Limit   2000 MB
 Mega-Array Size       188 MB
 MEM_STATIC part       192 MB
 A cutoff of  1.0D-08 yielded   3648 shell pairs
 There are     46929 function pairs
 Smallest overlap matrix eigenvalue = 5.57E-07

 Q-Chem warning in module stvman/mkSTV.C, line 323:

 Overlap eigenvalue is smaller than square root of threshold
 Use THRESH >= 12 to get rid of this warning

 Linear dependence detected in AO basis
 Tighter screening thresholds may be required for diffuse basis sets
 Use S2THRESH > 14 and THRESH = 14 in case of SCF convergence issues
 Number of orthogonalized atomic orbitals = 345
 Maximum deviation from orthogonality = 1.278E-10

 Scale SEOQF with 1.000000e-01/1.000000e-01/1.000000e-02

 Standard Electronic Orientation quadrupole field applied
 Nucleus-field energy     =     0.0000000172 hartrees
 ================ Generating on-the-fly Promolecule Density  ================
Attempting to make child job directory: /jobfs/49912904.gadi-pbs/qchem3509843//Frg1/
Attempting to make child job directory: /jobfs/49912904.gadi-pbs/qchem3509843//Frg2/
Attempting to make child job directory: /jobfs/49912904.gadi-pbs/qchem3509843//Frg3/
Attempting to make child job directory: /jobfs/49912904.gadi-pbs/qchem3509843//Frg4/
Attempting to make child job directory: /jobfs/49912904.gadi-pbs/qchem3509843//Frg5/
Attempting to make child job directory: /jobfs/49912904.gadi-pbs/qchem3509843//Frg6/
Creating input file /jobfs/49912904.gadi-pbs/qchem3509843/Frg1.input
using default PutDataFrgm: nothing
calling putenv with: QCSCRATCH=/jobfs/49912904.gadi-pbs/qchem3509843/ 
Spawning Job For Fragment 0
Done Job For Fragment 0
calling putenv with: QCSCRATCH=/jobfs/49912904.gadi-pbs 
calling putenv with: QCTHREADS=8 
Creating input file /jobfs/49912904.gadi-pbs/qchem3509843/Frg2.input
using default PutDataFrgm: nothing
calling putenv with: QCSCRATCH=/jobfs/49912904.gadi-pbs/qchem3509843/ 
Spawning Job For Fragment 1
Done Job For Fragment 1
calling putenv with: QCSCRATCH=/jobfs/49912904.gadi-pbs 
calling putenv with: QCTHREADS=8 
Creating input file /jobfs/49912904.gadi-pbs/qchem3509843/Frg3.input
using default PutDataFrgm: nothing
calling putenv with: QCSCRATCH=/jobfs/49912904.gadi-pbs/qchem3509843/ 
Spawning Job For Fragment 2
Done Job For Fragment 2
calling putenv with: QCSCRATCH=/jobfs/49912904.gadi-pbs 
calling putenv with: QCTHREADS=8 
Creating input file /jobfs/49912904.gadi-pbs/qchem3509843/Frg4.input
using default PutDataFrgm: nothing
calling putenv with: QCSCRATCH=/jobfs/49912904.gadi-pbs/qchem3509843/ 
Spawning Job For Fragment 3
Done Job For Fragment 3
calling putenv with: QCSCRATCH=/jobfs/49912904.gadi-pbs 
calling putenv with: QCTHREADS=8 
Creating input file /jobfs/49912904.gadi-pbs/qchem3509843/Frg5.input
using default PutDataFrgm: nothing
calling putenv with: QCSCRATCH=/jobfs/49912904.gadi-pbs/qchem3509843/ 
Spawning Job For Fragment 4
Done Job For Fragment 4
calling putenv with: QCSCRATCH=/jobfs/49912904.gadi-pbs 
calling putenv with: QCTHREADS=8 
Creating input file /jobfs/49912904.gadi-pbs/qchem3509843/Frg6.input
using default PutDataFrgm: nothing
calling putenv with: QCSCRATCH=/jobfs/49912904.gadi-pbs/qchem3509843/ 
Spawning Job For Fragment 5
Done Job For Fragment 5
calling putenv with: QCSCRATCH=/jobfs/49912904.gadi-pbs 
calling putenv with: QCTHREADS=8 
 Time for running child jobs:  CPU 0.96 s  wall 2.46 s
 ============= Method Specific Promolecule Density Constructed =============
 Guess from superposition of atomic densities
 Warning:  Energy on first SCF cycle will be non-variational
 SAD guess density has 150.000000 electrons

 -----------------------------------------------------------------------
  General SCF calculation program by
  Eric Jon Sundstrom, Paul Horn, Yuezhi Mao, Dmitri Zuev, Alec White,
  David Stuck, Shaama M.S., Shane Yost, Joonho Lee, David Small,
  Daniel Levine, Susi Lehtola, Hugh Burton, Evgeny Epifanovsky,
  Bang C. Huynh
 -----------------------------------------------------------------------
 Exchange:     0.5400 Hartree-Fock + 1.0000 M06-2X
 Correlation:  1.0000 M06-2X
 Using SG-3 standard quadrature grid
 using 8 threads for integral computing
 -------------------------------------------------------
 OpenMP Integral computing Module                
 Release: version 1.0, May 2013, Q-Chem Inc. Pittsburgh 
 -------------------------------------------------------
 A restricted SCF calculation will be
 performed using DIIS
 SCF converges when DIIS error is below 1.0e-05
 ---------------------------------------
  Cycle       Energy         DIIS error
 ---------------------------------------
    1   -1997.4169634961      4.26e-02  
    2   -1991.0938149439      6.01e-03  
    3   -1990.6185643165      9.12e-03  
    4   -1991.5381549925      8.61e-04  
    5   -1991.5462260053      3.83e-04  
    6   -1991.5480609446      9.46e-05  
    7   -1991.5481773214      3.56e-05  
    8   -1991.5481945166      7.61e-06  Convergence criterion met
 ---------------------------------------
 SCF time:   CPU 157.63s  wall 20.00s 
 SCF   energy in the final basis set =    -1991.5481945166
 Total energy in the final basis set =    -1991.5481945166
 Exchange:     0.5400 Hartree-Fock + 1.0000 M06-2X
 Correlation:  1.0000 M06-2X
 Using SG-3 standard quadrature grid
 
 SM12 calculation using Merz-Singh-Kollman charges
 Citation of the SM12 model:
 Marenich, A.V.; Cramer, C.J.; Truhlar, D.G.
 J. Chem. Theory Comput. 2013, 9, 609-612.
 iSolventCode=           1
 Solvent: water                                                           
 
  Building new vdw surfaces
         Merz-Kollman ESP Net Atomic Charges

     Atom                 Charge (a.u.)
  ----------------------------------------
      1 C                     0.027147
      2 C                    -0.144012
      3 Cl                    0.012479
      4 C                    -0.236742
      5 H                     0.195159
      6 C                     0.690657
      7 C                    -0.229630
      8 S                     1.041801
      9 C                    -0.200290
     10 H                     0.228870
     11 S                     0.991138
     12 O                    -0.495869
     13 O                    -0.465487
     14 N                    -0.771156
     15 H                     0.374900
     16 H                     0.363611
     17 N                    -0.752901
     18 C                     0.514284
     19 N                    -0.706514
     20 O                    -0.477271
     21 O                    -0.499464
     22 H                     0.104193
     23 H                     0.435100
  ----------------------------------------
  Sum of atomic charges =     0.000000

  Related Dipole Moment =     6.9849 (X -2.1662 Y -2.2718 Z -6.2398)


 Charges (in A.U.) from Merz-Kollman fitting 
 -----------------------------------------------
 Center     Atomic                  MZ       
 Number     Number                  Charge
 -----------------------------------------------
    1          6                    0.027147
    2          6                   -0.144012
    3         17                    0.012479
    4          6                   -0.236742
    5          1                    0.195159
    6          6                    0.690657
    7          6                   -0.229630
    8         16                    1.041801
    9          6                   -0.200290
   10          1                    0.228870
   11         16                    0.991138
   12          8                   -0.495869
   13          8                   -0.465487
   14          7                   -0.771156
   15          1                    0.374900
   16          1                    0.363611
   17          7                   -0.752901
   18          6                    0.514284
   19          7                   -0.706514
   20          8                   -0.477271
   21          8                   -0.499464
   22          1                    0.104193
   23          1                    0.435100
 -----------------------------------------------
 A restricted SCF calculation will be
 performed using Roothaan-Hall, DIIS
 SCF converges when DIIS error is below 1.0e-05
 ---------------------------------------
  Cycle       Energy         DIIS error
 ---------------------------------------
         Merz-Kollman ESP Net Atomic Charges

     Atom                 Charge (a.u.)
  ----------------------------------------
      1 C                     0.015746
      2 C                    -0.139107
      3 Cl                    0.011898
      4 C                    -0.231436
      5 H                     0.206638
      6 C                     0.712145
      7 C                    -0.240483
      8 S                     1.106542
      9 C                    -0.198447
     10 H                     0.227813
     11 S                     1.040022
     12 O                    -0.547084
     13 O                    -0.523723
     14 N                    -0.767381
     15 H                     0.395258
     16 H                     0.379111
     17 N                    -0.813609
     18 C                     0.558422
     19 N                    -0.692643
     20 O                    -0.529832
     21 O                    -0.560154
     22 H                     0.128825
     23 H                     0.461478
  ----------------------------------------
  Sum of atomic charges =     0.000000

  Related Dipole Moment =     8.6604 (X -2.6269 Y -2.5796 Z -7.8389)


 Charges (in A.U.) from Merz-Kollman fitting 
 -----------------------------------------------
 Center     Atomic                  MZ       
 Number     Number                  Charge
 -----------------------------------------------
    1          6                    0.015746
    2          6                   -0.139107
    3         17                    0.011898
    4          6                   -0.231436
    5          1                    0.206638
    6          6                    0.712145
    7          6                   -0.240483
    8         16                    1.106542
    9          6                   -0.198447
   10          1                    0.227813
   11         16                    1.040022
   12          8                   -0.547084
   13          8                   -0.523723
   14          7                   -0.767381
   15          1                    0.395258
   16          1                    0.379111
   17          7                   -0.813609
   18          6                    0.558422
   19          7                   -0.692643
   20          8                   -0.529832
   21          8                   -0.560154
   22          1                    0.128825
   23          1                    0.461478
 -----------------------------------------------
    1   -1991.5481947503      4.28e-04  Roothaan Step
 ---------------------------------------
  Cycle       Energy         DIIS error
 ---------------------------------------
         Merz-Kollman ESP Net Atomic Charges

     Atom                 Charge (a.u.)
  ----------------------------------------
      1 C                     0.018228
      2 C                    -0.152479
      3 Cl                    0.017136
      4 C                    -0.240280
      5 H                     0.211671
      6 C                     0.712104
      7 C                    -0.236073
      8 S                     1.058154
      9 C                    -0.202141
     10 H                     0.233870
     11 S                     1.001987
     12 O                    -0.528685
     13 O                    -0.494531
     14 N                    -0.776185
     15 H                     0.395669
     16 H                     0.378059
     17 N                    -0.764744
     18 C                     0.512942
     19 N                    -0.736906
     20 O                    -0.502011
     21 O                    -0.525847
     22 H                     0.144705
     23 H                     0.475360
  ----------------------------------------
  Sum of atomic charges =     0.000000

  Related Dipole Moment =     8.4888 (X -2.5995 Y -2.5714 Z -7.6610)


 Charges (in A.U.) from Merz-Kollman fitting 
 -----------------------------------------------
 Center     Atomic                  MZ       
 Number     Number                  Charge
 -----------------------------------------------
    1          6                    0.018228
    2          6                   -0.152479
    3         17                    0.017136
    4          6                   -0.240280
    5          1                    0.211671
    6          6                    0.712104
    7          6                   -0.236073
    8         16                    1.058154
    9          6                   -0.202141
   10          1                    0.233870
   11         16                    1.001987
   12          8                   -0.528685
   13          8                   -0.494531
   14          7                   -0.776185
   15          1                    0.395669
   16          1                    0.378059
   17          7                   -0.764744
   18          6                    0.512942
   19          7                   -0.736906
   20          8                   -0.502011
   21          8                   -0.525847
   22          1                    0.144705
   23          1                    0.475360
 -----------------------------------------------
    1   -1991.5393988319      3.55e-04  
         Merz-Kollman ESP Net Atomic Charges

     Atom                 Charge (a.u.)
  ----------------------------------------
      1 C                     0.018163
      2 C                    -0.142928
      3 Cl                    0.013034
      4 C                    -0.243568
      5 H                     0.211473
      6 C                     0.714059
      7 C                    -0.233453
      8 S                     1.099579
      9 C                    -0.202907
     10 H                     0.231596
     11 S                     1.037089
     12 O                    -0.546241
     13 O                    -0.517494
     14 N                    -0.772247
     15 H                     0.395612
     16 H                     0.378166
     17 N                    -0.797895
     18 C                     0.537184
     19 N                    -0.710600
     20 O                    -0.524564
     21 O                    -0.554012
     22 H                     0.140929
     23 H                     0.469025
  ----------------------------------------
  Sum of atomic charges =     0.000000

  Related Dipole Moment =     8.6816 (X -2.5836 Y -2.5594 Z -7.8831)


 Charges (in A.U.) from Merz-Kollman fitting 
 -----------------------------------------------
 Center     Atomic                  MZ       
 Number     Number                  Charge
 -----------------------------------------------
    1          6                    0.018163
    2          6                   -0.142928
    3         17                    0.013034
    4          6                   -0.243568
    5          1                    0.211473
    6          6                    0.714059
    7          6                   -0.233453
    8         16                    1.099579
    9          6                   -0.202907
   10          1                    0.231596
   11         16                    1.037089
   12          8                   -0.546241
   13          8                   -0.517494
   14          7                   -0.772247
   15          1                    0.395612
   16          1                    0.378166
   17          7                   -0.797895
   18          6                    0.537184
   19          7                   -0.710600
   20          8                   -0.524564
   21          8                   -0.554012
   22          1                    0.140929
   23          1                    0.469025
 -----------------------------------------------
    2   -1991.5413605796      4.76e-04  
         Merz-Kollman ESP Net Atomic Charges

     Atom                 Charge (a.u.)
  ----------------------------------------
      1 C                     0.015071
      2 C                    -0.143970
      3 Cl                    0.013649
      4 C                    -0.239629
      5 H                     0.211124
      6 C                     0.717765
      7 C                    -0.237990
      8 S                     1.094125
      9 C                    -0.201525
     10 H                     0.231875
     11 S                     1.032830
     12 O                    -0.545973
     13 O                    -0.516854
     14 N                    -0.771129
     15 H                     0.396218
     16 H                     0.378571
     17 N                    -0.796920
     18 C                     0.538965
     19 N                    -0.714589
     20 O                    -0.523036
     21 O                    -0.551420
     22 H                     0.142019
     23 H                     0.470822
  ----------------------------------------
  Sum of atomic charges =     0.000000

  Related Dipole Moment =     8.7766 (X -2.6308 Y -2.5890 Z -7.9627)


 Charges (in A.U.) from Merz-Kollman fitting 
 -----------------------------------------------
 Center     Atomic                  MZ       
 Number     Number                  Charge
 -----------------------------------------------
    1          6                    0.015071
    2          6                   -0.143970
    3         17                    0.013649
    4          6                   -0.239629
    5          1                    0.211124
    6          6                    0.717765
    7          6                   -0.237990
    8         16                    1.094125
    9          6                   -0.201525
   10          1                    0.231875
   11         16                    1.032830
   12          8                   -0.545973
   13          8                   -0.516854
   14          7                   -0.771129
   15          1                    0.396218
   16          1                    0.378571
   17          7                   -0.796920
   18          6                    0.538965
   19          7                   -0.714589
   20          8                   -0.523036
   21          8                   -0.551420
   22          1                    0.142019
   23          1                    0.470822
 -----------------------------------------------
    3   -1991.5408791946      3.76e-05  
         Merz-Kollman ESP Net Atomic Charges

     Atom                 Charge (a.u.)
  ----------------------------------------
      1 C                     0.016368
      2 C                    -0.143750
      3 Cl                    0.013575
      4 C                    -0.242256
      5 H                     0.211770
      6 C                     0.716468
      7 C                    -0.236062
      8 S                     1.096607
      9 C                    -0.201812
     10 H                     0.231996
     11 S                     1.033529
     12 O                    -0.546167
     13 O                    -0.516975
     14 N                    -0.772198
     15 H                     0.396339
     16 H                     0.378681
     17 N                    -0.797272
     18 C                     0.537771
     19 N                    -0.713677
     20 O                    -0.523818
     21 O                    -0.552886
     22 H                     0.142983
     23 H                     0.470785
  ----------------------------------------
  Sum of atomic charges =     0.000000

  Related Dipole Moment =     8.7683 (X -2.6051 Y -2.5755 Z -7.9664)


 Charges (in A.U.) from Merz-Kollman fitting 
 -----------------------------------------------
 Center     Atomic                  MZ       
 Number     Number                  Charge
 -----------------------------------------------
    1          6                    0.016368
    2          6                   -0.143750
    3         17                    0.013575
    4          6                   -0.242256
    5          1                    0.211770
    6          6                    0.716468
    7          6                   -0.236062
    8         16                    1.096607
    9          6                   -0.201812
   10          1                    0.231996
   11         16                    1.033529
   12          8                   -0.546167
   13          8                   -0.516975
   14          7                   -0.772198
   15          1                    0.396339
   16          1                    0.378681
   17          7                   -0.797272
   18          6                    0.537771
   19          7                   -0.713677
   20          8                   -0.523818
   21          8                   -0.552886
   22          1                    0.142983
   23          1                    0.470785
 -----------------------------------------------
    4   -1991.5406700184      2.01e-05  
    5   -1991.5405912120      5.03e-06  Convergence criterion met
 ---------------------------------------
 SCF time:   CPU 133.15s  wall 17.00s 
(0)  E-EN(g) gas-phase elect-nuc energy                -1991.548194517 a.u.
(1)  E-EN(liq) elect-nuc energy of solute              -1991.540591212 a.u.
(2)  G-P(liq) polarization free energy of solvation           -30.6450 kcal/mol
(3)  G-ENP(liq) elect-nuc-pol free energy of system    -1991.589427179 a.u.
(4)  G-CDS(liq) cavity-dispersion-solvent structure 
     free energy                                                3.0923 kcal/mol
(5)  G-P-CDS(liq) = G-P(liq) + G-CDS(liq) = (2) + (4)         -27.5527 kcal/mol
(6)  G-S(liq) free energy of system = (1) + (5)        -1991.584499269 a.u.
(7)  DeltaE-EN(liq) elect-nuc reorganization
     energy of solute molecule (7) = (1) - (0)                  4.7711 kcal/mol
(8)  DeltaG-ENP(liq) elect-nuc-pol free energy
     of solvation (8) = (3) - (0)                             -25.8739 kcal/mol
(9)  DeltaG-S(liq) free energy of  solvation
     (9) = (6) - (0)                                          -22.7816 kcal/mol
 SCF   energy in the final basis set =    -1991.5844992693
 Total energy in the final basis set =    -1991.5844992693
 
 --------------------------------------------------------------
 
                    Orbital Energies (a.u.)
 --------------------------------------------------------------
 
 Alpha MOs
 -- Occupied --
******** -90.1995 -90.1871 -19.6777 -19.6754 -19.6659 -19.6637 -14.8501
-14.8128 -14.7896 -10.6742 -10.6669 -10.6484 -10.6296 -10.6275 -10.6192
-10.5996  -9.8507  -8.5134  -8.5002  -7.5751  -7.5685  -7.5680  -6.4363
 -6.4347  -6.4341  -6.4225  -6.4220  -6.4214  -1.2811  -1.2686  -1.1614
 -1.1535  -1.1323  -1.0567  -1.0435  -1.0287  -0.9836  -0.9145  -0.8969
 -0.8227  -0.7915  -0.7618  -0.7352  -0.6897  -0.6708  -0.6588  -0.6391
 -0.6272  -0.6035  -0.5957  -0.5850  -0.5822  -0.5648  -0.5475  -0.5441
 -0.5292  -0.5174  -0.5001  -0.4905  -0.4602  -0.4566  -0.4458  -0.4305
 -0.4258  -0.4228  -0.4191  -0.4168  -0.4128  -0.4025  -0.3907  -0.3844
 -0.3723  -0.3419  -0.3207
 -- Virtual --
 -0.0580  -0.0356  -0.0030   0.0047   0.0192   0.0256   0.0306   0.0340
  0.0379   0.0415   0.0538   0.0559   0.0589   0.0661   0.0708   0.0717
  0.0811   0.0817   0.0848   0.0899   0.0958   0.1008   0.1042   0.1086
  0.1134   0.1152   0.1223   0.1237   0.1317   0.1348   0.1354   0.1383
  0.1494   0.1530   0.1546   0.1622   0.1654   0.1756   0.1816   0.1870
  0.1923   0.1935   0.2019   0.2032   0.2079   0.2113   0.2132   0.2196
  0.2213   0.2304   0.2343   0.2372   0.2389   0.2477   0.2526   0.2581
  0.2609   0.2631   0.2672   0.2721   0.2751   0.2810   0.2845   0.2857
  0.2941   0.2977   0.3006   0.3040   0.3136   0.3161   0.3190   0.3245
  0.3301   0.3345   0.3368   0.3443   0.3517   0.3534   0.3551   0.3651
  0.3683   0.3763   0.3845   0.3945   0.3995   0.4163   0.4206   0.4319
  0.4479   0.4668   0.4782   0.4965   0.5087   0.5419   0.5550   0.5814
  0.5886   0.6014   0.6314   0.6449   0.6532   0.6580   0.6662   0.6723
  0.6816   0.6972   0.6981   0.7128   0.7217   0.7351   0.7404   0.7608
  0.7652   0.7742   0.7921   0.8081   0.8207   0.8471   0.8552   0.8777
  0.8904   0.9170   0.9212   0.9384   0.9415   0.9568   0.9658   0.9740
  0.9783   0.9996   1.0117   1.0157   1.0255   1.0383   1.0397   1.0572
  1.0619   1.0733   1.0792   1.0877   1.0948   1.1031   1.1168   1.1330
  1.1403   1.1473   1.1545   1.1580   1.1650   1.1703   1.1799   1.1913
  1.2191   1.2343   1.2477   1.2607   1.2687   1.2854   1.3163   1.3220
  1.3282   1.3379   1.3470   1.3577   1.3639   1.3703   1.3788   1.3831
  1.3943   1.4049   1.4179   1.4297   1.4368   1.4485   1.4703   1.4804
  1.4988   1.5072   1.5243   1.5303   1.5451   1.5596   1.5626   1.5914
  1.6088   1.6289   1.6804   1.7238   1.7596   1.7711   1.7876   1.8005
  1.8080   1.8116   1.8330   1.8350   1.8402   1.8507   1.8560   1.8641
  1.8854   1.8963   1.9107   1.9188   1.9358   1.9451   1.9830   1.9994
  2.0172   2.0509   2.0639   2.0675   2.0943   2.1252   2.1393   2.1441
  2.1633   2.1738   2.1856   2.1953   2.2024   2.2119   2.2171   2.2501
  2.2584   2.2840   2.2957   2.3379   2.3503   2.3982   2.4092   2.4275
  2.4510   2.4936   2.5232   2.5820   2.6259   2.6647   2.6694   2.6763
  2.7321   2.7611   2.7881   2.7972   2.8520   2.8861   2.9065   2.9470
  2.9717   2.9769   3.0488   3.2665   3.3222   3.9018   4.0090   4.0472
  4.1230   4.1832   4.2122   4.2477   4.2840   4.2923   4.3137   4.3477
  4.3692   4.3932   4.4240   4.4606   4.5074   4.7266
 --------------------------------------------------------------
 
          Ground-State Mulliken Net Atomic Charges

     Atom                 Charge (a.u.)
  ----------------------------------------
      1 C                    -2.295974
      2 C                     1.371578
      3 Cl                    0.287841
      4 C                    -0.831792
      5 H                     0.303404
      6 C                     0.696465
      7 C                    -0.283849
      8 S                     1.537607
      9 C                    -0.353806
     10 H                     0.318953
     11 S                     1.144029
     12 O                    -0.752479
     13 O                    -0.611502
     14 N                    -0.812074
     15 H                     0.517747
     16 H                     0.495136
     17 N                    -0.384041
     18 C                     0.531585
     19 N                    -0.538676
     20 O                    -0.663826
     21 O                    -0.591258
     22 H                     0.333417
     23 H                     0.581515
  ----------------------------------------
  Sum of atomic charges =     0.000000

         Merz-Kollman ESP Net Atomic Charges

     Atom                 Charge (a.u.)
  ----------------------------------------
      1 C                     0.015804
      2 C                    -0.143338
      3 Cl                    0.013404
      4 C                    -0.242356
      5 H                     0.211748
      6 C                     0.717177
      7 C                    -0.236432
      8 S                     1.096751
      9 C                    -0.201985
     10 H                     0.232081
     11 S                     1.034730
     12 O                    -0.546656
     13 O                    -0.517382
     14 N                    -0.772091
     15 H                     0.396251
     16 H                     0.378576
     17 N                    -0.797196
     18 C                     0.537434
     19 N                    -0.713859
     20 O                    -0.523889
     21 O                    -0.552763
     22 H                     0.143156
     23 H                     0.470834
  ----------------------------------------
  Sum of atomic charges =     0.000000

  Related Dipole Moment =     8.7739 (X -2.6070 Y -2.5786 Z -7.9709)

 -----------------------------------------------------------------
                    Cartesian Multipole Moments
 -----------------------------------------------------------------
    Charge (ESU x 10^10)
                 0.0000
    Dipole Moment (Debye)
         X      -2.6333      Y      -2.5666      Z      -7.9339
       Tot       8.7446
    Quadrupole Moments (Debye-Ang)
        XX    -120.7432     XY      11.9010     YY    -127.6870
        XZ      -3.5350     YZ     -21.1090     ZZ     -77.7823
    Octopole Moments (Debye-Ang^2)
       XXX     233.4108    XXY     -83.4853    XYY      97.3807
       YYY    -199.8656    XXZ     219.1358    XYZ      -3.3198
       YYZ     227.4205    XZZ     172.7008    YZZ       7.2089
       ZZZ     308.3379
    Hexadecapole Moments (Debye-Ang^3)
      XXXX   -3047.3844   XXXY     260.2949   XXYY    -681.9034
      XYYY     248.3901   YYYY    -599.0837   XXXZ     255.3865
      XXYZ       8.7675   XYYZ     106.4533   YYYZ     206.4021
      XXZZ   -1475.6749   XYZZ     196.6055   YYZZ   -1155.7914
      XZZZ    -356.1738   YZZZ    -219.7585   ZZZZ   -3874.9701
 -----------------------------------------------------------------
 Total job time:  40.06s(wall), 296.41s(cpu) 
 Fri Jul  1 13:35:30 2022

        *************************************************************
        *                                                           *
        *  Thank you very much for using Q-Chem.  Have a nice day.  *
        *                                                           *
        *************************************************************


