                  Welcome to Q-Chem
     A Quantum Leap Into The Future Of Chemistry


 Q-Chem 5.4 (devel), Q-Chem, Inc., Pleasanton, CA (2021)

 E. Epifanovsky,  A. T. B. Gilbert,  Xintian Feng,  Joonho Lee,  Yuezhi Mao,  
 N. Mardirossian,  P. Pokhilko,  A. White,  M. Wormit,  M. P. Coons,  
 A. L. Dempwolff,  Zhengting Gan,  D. Hait,  P. R. Horn,  L. D. Jacobson,  
 I. Kaliman,  J. Kussmann,  A. W. Lange,  Ka Un Lao,  D. S. Levine,  Jie Liu,  
 S. C. McKenzie,  A. F. Morrison,  K. Nanda,  F. Plasser,  D. R. Rehn,  
 M. L. Vidal,  Zhi-Qiang You,  Ying Zhu,  B. Alam,  B. Albrecht,  
 A. Aldossary,  E. Alguire,  J. H. Andersen,  D. Barton,  K. Begam,  A. Behn,  
 Y. A. Bernard,  E. J. Berquist,  H. Burton,  A. Carreras,  K. Carter-Fenk,  
 R. Chakraborty,  A. D. Chien,  K. D. Closser,  V. Cofer-Shabica,  
 S. Dasgupta,  Jia Deng,  M. de Wergifosse,  M. Diedenhofen,  Hainam Do,  
 S. Ehlert,  Po-Tung Fang,  S. Fatehi,  Qingguo Feng,  T. Friedhoff,  
 J. Gayvert,  Qinghui Ge,  G. Gidofalvi,  M. Goldey,  J. Gomes,  
 C. Gonzalez-Espinoza,  S. Gulania,  A. Gunina,  M. W. D. Hanson-Heine,  
 P. H. P. Harbach,  A. W. Hauser,  M. F. Herbst,  M. Hernandez Vera,  
 M. Hodecker,  Z. C. Holden,  S. Houck,  Xunkun Huang,  Kerwin Hui,  
 B. C. Huynh,  M. Ivanov,  Hyunjun Ji,  Hanjie Jiang,  B. Kaduk,  S. Kaehler,  
 K. Khistyaev,  Jaehoon Kim,  P. Klunzinger,  Z. Koczor-Benda,  
 Joong Hoon Koh,  D. Kosenkov,  L. Koulias,  T. Kowalczyk,  C. M. Krauter,  
 K. Kue,  A. Kunitsa,  T. Kus,  A. Landau,  K. V. Lawler,  D. Lefrancois,  
 S. Lehtola,  Rain Li,  Yi-Pei Li,  Jiashu Liang,  M. Liebenthal,  
 Hung-Hsuan Lin,  You-Sheng Lin,  Fenglai Liu,  Kuan-Yu Liu,  
 M. Loipersberger,  A. Luenser,  A. Manjanath,  P. Manohar,  E. Mansoor,  
 S. F. Manzer,  Shan-Ping Mao,  A. V. Marenich,  T. Markovich,  S. Mason,  
 S. A. Maurer,  P. F. McLaughlin,  M. F. S. J. Menger,  J.-M. Mewes,  
 S. A. Mewes,  P. Morgante,  J. W. Mullinax,  K. J. Oosterbaan,  G. Paran,  
 Alexander C. Paul,  Suranjan K. Paul,  F. Pavosevic,  Zheng Pei,  S. Prager,  
 E. I. Proynov,  E. Ramos,  B. Rana,  A. E. Rask,  A. Rettig,  R. M. Richard,  
 F. Rob,  E. Rossomme,  T. Scheele,  M. Scheurer,  M. Schneider,  
 N. Sergueev,  S. M. Sharada,  W. Skomorowski,  D. W. Small,  C. J. Stein,  
 Yu-Chuan Su,  E. J. Sundstrom,  Zhen Tao,  J. Thirman,  T. Tsuchimochi,  
 N. M. Tubman,  S. P. Veccham,  O. Vydrov,  J. Wenzel,  J. Witte,  A. Yamada,  
 Kun Yao,  S. Yeganeh,  S. R. Yost,  A. Zech,  Igor Ying Zhang,  Xing Zhang,  
 Yu Zhang,  D. Zuev,  A. Aspuru-Guzik,  A. T. Bell,  N. A. Besley,  
 K. B. Bravaya,  B. R. Brooks,  D. Casanova,  Jeng-Da Chai,  S. Coriani,  
 C. J. Cramer,  A. E. DePrince, III,  R. A. DiStasio Jr.,  A. Dreuw,  
 B. D. Dunietz,  T. R. Furlani,  W. A. Goddard III,  S. Grimme,  
 S. Hammes-Schiffer,  T. Head-Gordon,  W. J. Hehre,  Chao-Ping Hsu,  
 T.-C. Jagau,  Yousung Jung,  A. Klamt,  Jing Kong,  D. S. Lambrecht,  
 WanZhen Liang,  N. J. Mayhall,  C. W. McCurdy,  J. B. Neaton,  
 C. Ochsenfeld,  J. A. Parkhill,  R. Peverati,  V. A. Rassolov,  Yihan Shao,  
 L. V. Slipchenko,  T. Stauch,  R. P. Steele,  J. E. Subotnik,  
 A. J. W. Thom,  A. Tkatchenko,  D. G. Truhlar,  T. Van Voorhis,  
 T. A. Wesolowski,  K. B. Whaley,  H. L. Woodcock III,  P. M. Zimmerman,  
 S. Faraji,  P. M. W. Gill,  M. Head-Gordon,  J. M. Herbert,  A. I. Krylov

 Additional authors for Version 5.4.1: 
 S. Kotaru,  Shaozhi Li,  Xiangyuan Li,  F. Matz,  A. Molle,  Haisheng Ren,  
 Yingli Su,  Hung-Yi Tsai,  C. Utku,  Fang Wang

 Contributors to earlier versions of Q-Chem not listed above: 
 R. D. Adamson,  B. Austin,  R. Baer,  J. Baker,  G. J. O. Beran,  
 K. Brandhorst,  S. T. Brown,  E. F. C. Byrd,  A. K. Chakraborty,  
 G. K. L. Chan,  Chun-Min Chang,  Yunqing Chen,  C.-L. Cheng,  
 Siu Hung Chien,  D. M. Chipman,  D. L. Crittenden,  H. Dachsel,  
 R. J. Doerksen,  A. D. Dutoi,  R. G. Edgar,  J. Fosso-Tande,  
 L. Fusti-Molnar,  D. Ghosh,  A. Ghysels,  A. Golubeva-Zadorozhnaya,  
 J. Gonthier,  M. S. Gordon,  S. R. Gwaltney,  G. Hawkins,  J. E. Herr,  
 A. Heyden,  S. Hirata,  E. G. Hohenstein,  G. Kedziora,  F. J. Keil,  
 C. Kelley,  Jihan Kim,  R. A. King,  R. Z. Khaliullin,  P. P. Korambath,  
 W. Kurlancheek,  A. Laurent,  A. M. Lee,  M. S. Lee,  S. V. Levchenko,  
 Ching Yeh Lin,  D. Liotard,  E. Livshits,  R. C. Lochan,  I. Lotan,  
 L. A. Martinez-Martinez,  P. E. Maslen,  N. Nair,  D. P. O'Neill,  
 D. Neuhauser,  E. Neuscamman,  C. M. Oana,  R. Olivares-Amaya,  R. Olson,  
 T. M. Perrine,  B. Peters,  P. A. Pieniazek,  A. Prociuk,  Y. M. Rhee,  
 J. Ritchie,  M. A. Rohrdanz,  E. Rosta,  N. J. Russ,  H. F. Schaefer III,  
 M. W. Schmidt,  N. E. Schultz,  S. Sharma,  N. Shenvi,  C. D. Sherrill,  
 A. C. Simmonett,  A. Sodt,  T. Stein,  D. Stuck,  K. S. Thanthiriwatte,  
 V. Vanovschi,  L. Vogt,  Tao Wang,  A. Warshel,  M. A. Watson,  
 C. F. Williams,  Q. Wu,  X. Xu,  Jun Yang,  W. Zhang,  Yan Zhao

 Please cite Q-Chem as follows:
 Y. Shao et al., Mol. Phys. 113, 184-215 (2015)
 DOI: 10.1080/00268976.2014.952696

 Q-Chem 5.4.1 for Intel X86 EM64T Linux

 Parts of Q-Chem use Armadillo 9.800.1 (Horizon Scraper).
 http://arma.sourceforge.net/

 Q-Chem begins on Thu May 26 10:29:08 2022  

 Host: gadi-cpu-clx-2119.gadi.nci.org.au
0

     Scratch files written to /jobfs/41312712.gadi-pbs/qchem3817559//
 Processing $rem in /apps/qchem/5.4.1/config/preferences:
 Processing $rem in /home/561/yj5695/.qchemrc:
 Symmetry turned off for PCM/SM12/SMD calculation
 Method-specific promolecule density matrix will be built for SM12 calculation

 Checking the input file for inconsistencies... 	...done.

--------------------------------------------------------------
User input:
--------------------------------------------------------------
$molecule
0  1
C -1.4513268562  0.5395519694 -0.8995247718
C -2.5303363052  0.1942925455 -1.7176811447
H -3.4391815917 -0.2167889205 -1.288126559
C -2.4288869361  0.3680687508 -3.0880289765
H -3.257335326  0.094066793 -3.7352775756
C -1.2528492004  0.8937349557 -3.6582808884
N -1.1738947704  1.1157663335 -5.0139901216
C -0.1791872126  1.2394648195 -2.8143090347
H  0.7322393953  1.6393861543 -3.2498538828
C -0.27715687  1.0670227612 -1.4435408882
H  0.5581303662  1.3315152001 -0.8017895588
S -1.6015349723  0.3788349508  0.8474105064
O -2.6010626306 -0.6540573824  1.133525034
O -0.2577105888  0.2528861772  1.4184604097
N -2.221279607  1.781069093  1.4817273972
H -3.1529248289  1.9733887493  1.1072261133
H -1.6019935865  2.5731122422  1.2963876973
H -1.8107940571  0.5808383724 -5.5940553908
H -0.2403064215  1.188953435 -5.402990365
$end

$rem
jobtype sp
exchange M062X
basis 6-31+G*
SMX_GAS_PHASE = TRUE
solvent_method sm12
$end

$smx
solvent water
charges mk
$end
--------------------------------------------------------------
 ----------------------------------------------------------------
             Standard Nuclear Orientation (Angstroms)
    I     Atom           X                Y                Z
 ----------------------------------------------------------------
    1      C      -1.4513268562     0.5395519694    -0.8995247718
    2      C      -2.5303363052     0.1942925455    -1.7176811447
    3      H      -3.4391815917    -0.2167889205    -1.2881265590
    4      C      -2.4288869361     0.3680687508    -3.0880289765
    5      H      -3.2573353260     0.0940667930    -3.7352775756
    6      C      -1.2528492004     0.8937349557    -3.6582808884
    7      N      -1.1738947704     1.1157663335    -5.0139901216
    8      C      -0.1791872126     1.2394648195    -2.8143090347
    9      H       0.7322393953     1.6393861543    -3.2498538828
   10      C      -0.2771568700     1.0670227612    -1.4435408882
   11      H       0.5581303662     1.3315152001    -0.8017895588
   12      S      -1.6015349723     0.3788349508     0.8474105064
   13      O      -2.6010626306    -0.6540573824     1.1335250340
   14      O      -0.2577105888     0.2528861772     1.4184604097
   15      N      -2.2212796070     1.7810690930     1.4817273972
   16      H      -3.1529248289     1.9733887493     1.1072261133
   17      H      -1.6019935865     2.5731122422     1.2963876973
   18      H      -1.8107940571     0.5808383724    -5.5940553908
   19      H      -0.2403064215     1.1889534350    -5.4029903650
 ----------------------------------------------------------------
 Nuclear Repulsion Energy =         727.22093995 hartrees
 There are       45 alpha and       45 beta electrons
 Requested basis set is 6-31+G(d)
 There are 72 shells and 229 basis functions

 Total QAlloc Memory Limit   2000 MB
 Mega-Array Size       188 MB
 MEM_STATIC part       192 MB
 A cutoff of  1.0D-08 yielded   2134 shell pairs
 There are     22908 function pairs
 Smallest overlap matrix eigenvalue = 3.05E-06

 Q-Chem warning in module stvman/mkSTV.C, line 323:

 Overlap eigenvalue is smaller than square root of threshold
 Use THRESH >= 12 to get rid of this warning


 Scale SEOQF with 1.000000e-01/1.000000e-01/1.000000e-02

 Standard Electronic Orientation quadrupole field applied
 Nucleus-field energy     =     0.0000000096 hartrees
 ================ Generating on-the-fly Promolecule Density  ================
Attempting to make child job directory: /jobfs/41312712.gadi-pbs/qchem3817559//Frg1/
Attempting to make child job directory: /jobfs/41312712.gadi-pbs/qchem3817559//Frg2/
Attempting to make child job directory: /jobfs/41312712.gadi-pbs/qchem3817559//Frg3/
Attempting to make child job directory: /jobfs/41312712.gadi-pbs/qchem3817559//Frg4/
Attempting to make child job directory: /jobfs/41312712.gadi-pbs/qchem3817559//Frg5/
Creating input file /jobfs/41312712.gadi-pbs/qchem3817559/Frg1.input
using default PutDataFrgm: nothing
calling putenv with: QCSCRATCH=/jobfs/41312712.gadi-pbs/qchem3817559/ 
Spawning Job For Fragment 0
Done Job For Fragment 0
calling putenv with: QCSCRATCH=/jobfs/41312712.gadi-pbs 
calling putenv with: QCTHREADS=16 
Creating input file /jobfs/41312712.gadi-pbs/qchem3817559/Frg2.input
using default PutDataFrgm: nothing
calling putenv with: QCSCRATCH=/jobfs/41312712.gadi-pbs/qchem3817559/ 
Spawning Job For Fragment 1
Done Job For Fragment 1
calling putenv with: QCSCRATCH=/jobfs/41312712.gadi-pbs 
calling putenv with: QCTHREADS=16 
Creating input file /jobfs/41312712.gadi-pbs/qchem3817559/Frg3.input
using default PutDataFrgm: nothing
calling putenv with: QCSCRATCH=/jobfs/41312712.gadi-pbs/qchem3817559/ 
Spawning Job For Fragment 2
Done Job For Fragment 2
calling putenv with: QCSCRATCH=/jobfs/41312712.gadi-pbs 
calling putenv with: QCTHREADS=16 
Creating input file /jobfs/41312712.gadi-pbs/qchem3817559/Frg4.input
using default PutDataFrgm: nothing
calling putenv with: QCSCRATCH=/jobfs/41312712.gadi-pbs/qchem3817559/ 
Spawning Job For Fragment 3
Done Job For Fragment 3
calling putenv with: QCSCRATCH=/jobfs/41312712.gadi-pbs 
calling putenv with: QCTHREADS=16 
Creating input file /jobfs/41312712.gadi-pbs/qchem3817559/Frg5.input
using default PutDataFrgm: nothing
calling putenv with: QCSCRATCH=/jobfs/41312712.gadi-pbs/qchem3817559/ 
Spawning Job For Fragment 4
Done Job For Fragment 4
calling putenv with: QCSCRATCH=/jobfs/41312712.gadi-pbs 
calling putenv with: QCTHREADS=16 
 Time for running child jobs:  CPU 2.18 s  wall 2.08 s
 ============= Method Specific Promolecule Density Constructed =============
 Guess from superposition of atomic densities
 Warning:  Energy on first SCF cycle will be non-variational
 SAD guess density has 90.000000 electrons

 -----------------------------------------------------------------------
  General SCF calculation program by
  Eric Jon Sundstrom, Paul Horn, Yuezhi Mao, Dmitri Zuev, Alec White,
  David Stuck, Shaama M.S., Shane Yost, Joonho Lee, David Small,
  Daniel Levine, Susi Lehtola, Hugh Burton, Evgeny Epifanovsky,
  Bang C. Huynh
 -----------------------------------------------------------------------
 Exchange:     0.5400 Hartree-Fock + 1.0000 M06-2X
 Correlation:  1.0000 M06-2X
 Using SG-3 standard quadrature grid
 using 16 threads for integral computing
 -------------------------------------------------------
 OpenMP Integral computing Module                
 Release: version 1.0, May 2013, Q-Chem Inc. Pittsburgh 
 -------------------------------------------------------
 A restricted SCF calculation will be
 performed using DIIS
 SCF converges when DIIS error is below 1.0e-05
 ---------------------------------------
  Cycle       Energy         DIIS error
 ---------------------------------------
    1    -894.8559072623      5.17e-02  
    2    -891.0511408035      6.63e-03  
    3    -890.9032765016      8.97e-03  
    4    -891.2890600890      1.12e-03  
    5    -891.2956374164      4.13e-04  
    6    -891.2966461021      1.09e-04  
    7    -891.2967202521      3.20e-05  
    8    -891.2967271530      8.21e-06  Convergence criterion met
 ---------------------------------------
 SCF time:   CPU 74.17s  wall 5.00s 
 SCF   energy in the final basis set =     -891.2967271530
 Total energy in the final basis set =     -891.2967271530
 Exchange:     0.5400 Hartree-Fock + 1.0000 M06-2X
 Correlation:  1.0000 M06-2X
 Using SG-3 standard quadrature grid
 
 SM12 calculation using Merz-Singh-Kollman charges
 Citation of the SM12 model:
 Marenich, A.V.; Cramer, C.J.; Truhlar, D.G.
 J. Chem. Theory Comput. 2013, 9, 609-612.
 iSolventCode=           1
 Solvent: water                                                           
 
  Building new vdw surfaces
         Merz-Kollman ESP Net Atomic Charges

     Atom                 Charge (a.u.)
  ----------------------------------------
      1 C                    -0.146152
      2 C                    -0.175174
      3 H                     0.184196
      4 C                    -0.243835
      5 H                     0.172442
      6 C                     0.422114
      7 N                    -0.919212
      8 C                    -0.252013
      9 H                     0.178456
     10 C                    -0.170639
     11 H                     0.181411
     12 S                     1.119503
     13 O                    -0.533110
     14 O                    -0.532549
     15 N                    -0.839244
     16 H                     0.380046
     17 H                     0.378755
     18 H                     0.397843
     19 H                     0.397165
  ----------------------------------------
  Sum of atomic charges =     0.000000

  Related Dipole Moment =     8.1059 (X -0.4740 Y  3.5360 Z -7.2786)


 Charges (in A.U.) from Merz-Kollman fitting 
 -----------------------------------------------
 Center     Atomic                  MZ       
 Number     Number                  Charge
 -----------------------------------------------
    1          6                   -0.146152
    2          6                   -0.175174
    3          1                    0.184196
    4          6                   -0.243835
    5          1                    0.172442
    6          6                    0.422114
    7          7                   -0.919212
    8          6                   -0.252013
    9          1                    0.178456
   10          6                   -0.170639
   11          1                    0.181411
   12         16                    1.119503
   13          8                   -0.533110
   14          8                   -0.532549
   15          7                   -0.839244
   16          1                    0.380046
   17          1                    0.378755
   18          1                    0.397843
   19          1                    0.397165
 -----------------------------------------------
 A restricted SCF calculation will be
 performed using Roothaan-Hall, DIIS
 SCF converges when DIIS error is below 1.0e-05
 ---------------------------------------
  Cycle       Energy         DIIS error
 ---------------------------------------
         Merz-Kollman ESP Net Atomic Charges

     Atom                 Charge (a.u.)
  ----------------------------------------
      1 C                    -0.143162
      2 C                    -0.211164
      3 H                     0.193739
      4 C                    -0.233291
      5 H                     0.187702
      6 C                     0.418141
      7 N                    -0.913732
      8 C                    -0.241277
      9 H                     0.194340
     10 C                    -0.207407
     11 H                     0.190851
     12 S                     1.161594
     13 O                    -0.590951
     14 O                    -0.590447
     15 N                    -0.833132
     16 H                     0.398412
     17 H                     0.397023
     18 H                     0.411708
     19 H                     0.411054
  ----------------------------------------
  Sum of atomic charges =     0.000000

  Related Dipole Moment =     9.7820 (X -0.6130 Y  4.3571 Z -8.7366)


 Charges (in A.U.) from Merz-Kollman fitting 
 -----------------------------------------------
 Center     Atomic                  MZ       
 Number     Number                  Charge
 -----------------------------------------------
    1          6                   -0.143162
    2          6                   -0.211164
    3          1                    0.193739
    4          6                   -0.233291
    5          1                    0.187702
    6          6                    0.418141
    7          7                   -0.913732
    8          6                   -0.241277
    9          1                    0.194340
   10          6                   -0.207407
   11          1                    0.190851
   12         16                    1.161594
   13          8                   -0.590951
   14          8                   -0.590447
   15          7                   -0.833132
   16          1                    0.398412
   17          1                    0.397023
   18          1                    0.411708
   19          1                    0.411054
 -----------------------------------------------
    1    -891.2967269693      5.36e-04  Roothaan Step
 ---------------------------------------
  Cycle       Energy         DIIS error
 ---------------------------------------
         Merz-Kollman ESP Net Atomic Charges

     Atom                 Charge (a.u.)
  ----------------------------------------
      1 C                    -0.123131
      2 C                    -0.202071
      3 H                     0.189551
      4 C                    -0.253221
      5 H                     0.193316
      6 C                     0.428457
      7 N                    -0.930937
      8 C                    -0.260891
      9 H                     0.199820
     10 C                    -0.197174
     11 H                     0.186162
     12 S                     1.126548
     13 O                    -0.572225
     14 O                    -0.571567
     15 N                    -0.845290
     16 H                     0.397145
     17 H                     0.395661
     18 H                     0.420415
     19 H                     0.419434
  ----------------------------------------
  Sum of atomic charges =     0.000000

  Related Dipole Moment =     9.7190 (X -0.5181 Y  4.1297 Z -8.7827)


 Charges (in A.U.) from Merz-Kollman fitting 
 -----------------------------------------------
 Center     Atomic                  MZ       
 Number     Number                  Charge
 -----------------------------------------------
    1          6                   -0.123131
    2          6                   -0.202071
    3          1                    0.189551
    4          6                   -0.253221
    5          1                    0.193316
    6          6                    0.428457
    7          7                   -0.930937
    8          6                   -0.260891
    9          1                    0.199820
   10          6                   -0.197174
   11          1                    0.186162
   12         16                    1.126548
   13          8                   -0.572225
   14          8                   -0.571567
   15          7                   -0.845290
   16          1                    0.397145
   17          1                    0.395661
   18          1                    0.420415
   19          1                    0.419434
 -----------------------------------------------
    1    -891.2912528224      3.58e-04  
         Merz-Kollman ESP Net Atomic Charges

     Atom                 Charge (a.u.)
  ----------------------------------------
      1 C                    -0.133882
      2 C                    -0.206016
      3 H                     0.191098
      4 C                    -0.248255
      5 H                     0.192551
      6 C                     0.428187
      7 N                    -0.921462
      8 C                    -0.256168
      9 H                     0.199220
     10 C                    -0.201457
     11 H                     0.187891
     12 S                     1.165531
     13 O                    -0.592901
     14 O                    -0.592386
     15 N                    -0.839831
     16 H                     0.397503
     17 H                     0.396041
     18 H                     0.417621
     19 H                     0.416715
  ----------------------------------------
  Sum of atomic charges =     0.000000

  Related Dipole Moment =     9.9363 (X -0.5693 Y  4.3092 Z -8.9352)


 Charges (in A.U.) from Merz-Kollman fitting 
 -----------------------------------------------
 Center     Atomic                  MZ       
 Number     Number                  Charge
 -----------------------------------------------
    1          6                   -0.133882
    2          6                   -0.206016
    3          1                    0.191098
    4          6                   -0.248255
    5          1                    0.192551
    6          6                    0.428187
    7          7                   -0.921462
    8          6                   -0.256168
    9          1                    0.199220
   10          6                   -0.201457
   11          1                    0.187891
   12         16                    1.165531
   13          8                   -0.592901
   14          8                   -0.592386
   15          7                   -0.839831
   16          1                    0.397503
   17          1                    0.396041
   18          1                    0.417621
   19          1                    0.416715
 -----------------------------------------------
    2    -891.2916590051      4.14e-04  
         Merz-Kollman ESP Net Atomic Charges

     Atom                 Charge (a.u.)
  ----------------------------------------
      1 C                    -0.137063
      2 C                    -0.206024
      3 H                     0.191285
      4 C                    -0.247792
      5 H                     0.193171
      6 C                     0.428276
      7 N                    -0.919415
      8 C                    -0.255700
      9 H                     0.199866
     10 C                    -0.201434
     11 H                     0.188043
     12 S                     1.156821
     13 O                    -0.590381
     14 O                    -0.589831
     15 N                    -0.839861
     16 H                     0.398220
     17 H                     0.396759
     18 H                     0.417994
     19 H                     0.417067
  ----------------------------------------
  Sum of atomic charges =     0.000000

  Related Dipole Moment =    10.0205 (X -0.5624 Y  4.3199 Z -9.0239)


 Charges (in A.U.) from Merz-Kollman fitting 
 -----------------------------------------------
 Center     Atomic                  MZ       
 Number     Number                  Charge
 -----------------------------------------------
    1          6                   -0.137063
    2          6                   -0.206024
    3          1                    0.191285
    4          6                   -0.247792
    5          1                    0.193171
    6          6                    0.428276
    7          7                   -0.919415
    8          6                   -0.255700
    9          1                    0.199866
   10          6                   -0.201434
   11          1                    0.188043
   12         16                    1.156821
   13          8                   -0.590381
   14          8                   -0.589831
   15          7                   -0.839861
   16          1                    0.398220
   17          1                    0.396759
   18          1                    0.417994
   19          1                    0.417067
 -----------------------------------------------
    3    -891.2910919838      4.64e-05  
         Merz-Kollman ESP Net Atomic Charges

     Atom                 Charge (a.u.)
  ----------------------------------------
      1 C                    -0.135189
      2 C                    -0.205010
      3 H                     0.190946
      4 C                    -0.249953
      5 H                     0.193581
      6 C                     0.428656
      7 N                    -0.919851
      8 C                    -0.257896
      9 H                     0.200290
     10 C                    -0.200345
     11 H                     0.187692
     12 S                     1.160687
     13 O                    -0.592083
     14 O                    -0.591553
     15 N                    -0.840791
     16 H                     0.398130
     17 H                     0.396658
     18 H                     0.418487
     19 H                     0.417545
  ----------------------------------------
  Sum of atomic charges =     0.000000

  Related Dipole Moment =    10.0272 (X -0.5614 Y  4.3197 Z -9.0316)


 Charges (in A.U.) from Merz-Kollman fitting 
 -----------------------------------------------
 Center     Atomic                  MZ       
 Number     Number                  Charge
 -----------------------------------------------
    1          6                   -0.135189
    2          6                   -0.205010
    3          1                    0.190946
    4          6                   -0.249953
    5          1                    0.193581
    6          6                    0.428656
    7          7                   -0.919851
    8          6                   -0.257896
    9          1                    0.200290
   10          6                   -0.200345
   11          1                    0.187692
   12         16                    1.160687
   13          8                   -0.592083
   14          8                   -0.591553
   15          7                   -0.840791
   16          1                    0.398130
   17          1                    0.396658
   18          1                    0.418487
   19          1                    0.417545
 -----------------------------------------------
    4    -891.2908369614      2.63e-05  
    5    -891.2907658817      6.46e-06  Convergence criterion met
 ---------------------------------------
 SCF time:   CPU 74.44s  wall 5.00s 
(0)  E-EN(g) gas-phase elect-nuc energy                 -891.296727153 a.u.
(1)  E-EN(liq) elect-nuc energy of solute               -891.290765882 a.u.
(2)  G-P(liq) polarization free energy of solvation           -24.8867 kcal/mol
(3)  G-ENP(liq) elect-nuc-pol free energy of system     -891.330425295 a.u.
(4)  G-CDS(liq) cavity-dispersion-solvent structure 
     free energy                                                2.4379 kcal/mol
(5)  G-P-CDS(liq) = G-P(liq) + G-CDS(liq) = (2) + (4)         -22.4487 kcal/mol
(6)  G-S(liq) free energy of system = (1) + (5)         -891.326540232 a.u.
(7)  DeltaE-EN(liq) elect-nuc reorganization
     energy of solute molecule (7) = (1) - (0)                  3.7408 kcal/mol
(8)  DeltaG-ENP(liq) elect-nuc-pol free energy
     of solvation (8) = (3) - (0)                             -21.1459 kcal/mol
(9)  DeltaG-S(liq) free energy of  solvation
     (9) = (6) - (0)                                          -18.7080 kcal/mol
 SCF   energy in the final basis set =     -891.3265402316
 Total energy in the final basis set =     -891.3265402316
 
 --------------------------------------------------------------
 
                    Orbital Energies (a.u.)
 --------------------------------------------------------------
 
 Alpha MOs
 -- Occupied --
-90.1714 -19.6548 -19.6547 -14.8020 -14.7806 -10.6191 -10.5918 -10.5838
-10.5837 -10.5681 -10.5680  -8.4852  -6.4075  -6.4071  -6.4060  -1.2542
 -1.1409  -1.0478  -1.0297  -0.9716  -0.8691  -0.8632  -0.7628  -0.7237
 -0.6926  -0.6425  -0.6148  -0.6081  -0.5984  -0.5830  -0.5396  -0.5324
 -0.5151  -0.5077  -0.4888  -0.4750  -0.4317  -0.4242  -0.4220  -0.4169
 -0.3975  -0.3878  -0.3769  -0.3313  -0.2758
 -- Virtual --
 -0.0084  -0.0043  -0.0017   0.0093   0.0238   0.0335   0.0397   0.0475
  0.0605   0.0708   0.0722   0.0794   0.0831   0.0933   0.0984   0.1052
  0.1172   0.1206   0.1241   0.1316   0.1393   0.1492   0.1528   0.1548
  0.1585   0.1589   0.1657   0.1773   0.1777   0.1875   0.1972   0.2056
  0.2110   0.2166   0.2212   0.2272   0.2283   0.2311   0.2318   0.2366
  0.2390   0.2607   0.2649   0.2727   0.2752   0.2800   0.2901   0.2978
  0.3066   0.3084   0.3186   0.3221   0.3249   0.3484   0.3574   0.3612
  0.3695   0.3767   0.3902   0.3909   0.4152   0.4194   0.4689   0.4740
  0.5482   0.5494   0.5690   0.6218   0.6741   0.6847   0.6867   0.7047
  0.7150   0.7402   0.7518   0.7570   0.7594   0.7803   0.8009   0.8325
  0.8329   0.8562   0.8942   0.9312   0.9452   0.9587   0.9836   0.9889
  0.9922   1.0126   1.0211   1.0254   1.0341   1.0541   1.0593   1.0933
  1.1012   1.1114   1.1147   1.1257   1.1267   1.1559   1.1572   1.1842
  1.1933   1.2182   1.2446   1.2816   1.3051   1.3143   1.3455   1.3515
  1.3643   1.3676   1.3847   1.3955   1.3988   1.4015   1.4200   1.4919
  1.4945   1.5124   1.5392   1.5409   1.5865   1.6122   1.6804   1.7201
  1.7954   1.8028   1.8185   1.8196   1.8564   1.8606   1.8969   1.9037
  1.9425   1.9507   1.9697   1.9949   2.0194   2.0453   2.0471   2.1115
  2.1246   2.1282   2.1581   2.1664   2.1672   2.2325   2.2350   2.2494
  2.2882   2.2938   2.3164   2.3391   2.4431   2.4812   2.5017   2.5032
  2.5548   2.6389   2.6518   2.7059   2.7647   2.7779   2.7828   2.8710
  2.8996   2.9364   2.9452   3.1107   3.3835   3.8833   4.0389   4.0795
  4.1984   4.2479   4.2644   4.2833   4.3262   4.4048   4.4435   4.7224
 --------------------------------------------------------------
 
          Ground-State Mulliken Net Atomic Charges

     Atom                 Charge (a.u.)
  ----------------------------------------
      1 C                    -1.507174
      2 C                    -0.924046
      3 H                     0.274660
      4 C                     0.747738
      5 H                     0.269833
      6 C                     0.907340
      7 N                    -0.783871
      8 C                     0.759072
      9 H                     0.271422
     10 C                    -0.925192
     11 H                     0.274136
     12 S                     1.102223
     13 O                    -0.771568
     14 O                    -0.771659
     15 N                    -0.818920
     16 H                     0.503043
     17 H                     0.502740
     18 H                     0.445006
     19 H                     0.445217
  ----------------------------------------
  Sum of atomic charges =     0.000000

         Merz-Kollman ESP Net Atomic Charges

     Atom                 Charge (a.u.)
  ----------------------------------------
      1 C                    -0.136562
      2 C                    -0.204759
      3 H                     0.190905
      4 C                    -0.250066
      5 H                     0.193546
      6 C                     0.429490
      7 N                    -0.919559
      8 C                    -0.258018
      9 H                     0.200260
     10 C                    -0.200084
     11 H                     0.187650
     12 S                     1.161388
     13 O                    -0.592243
     14 O                    -0.591713
     15 N                    -0.840710
     16 H                     0.398030
     17 H                     0.396559
     18 H                     0.418415
     19 H                     0.417470
  ----------------------------------------
  Sum of atomic charges =     0.000000

  Related Dipole Moment =    10.0372 (X -0.5606 Y  4.3209 Z -9.0422)

 -----------------------------------------------------------------
                    Cartesian Multipole Moments
 -----------------------------------------------------------------
    Charge (ESU x 10^10)
                 0.0000
    Dipole Moment (Debye)
         X      -0.5826      Y       4.3475      Z      -9.0155
       Tot      10.0259
    Quadrupole Moments (Debye-Ang)
        XX     -65.9483     XY      -6.1142     YY     -68.3451
        XZ       8.5476     YZ       2.9314     ZZ     -47.6260
    Octopole Moments (Debye-Ang^2)
       XXX     292.7477    XXY     -23.4765    XYY     103.9604
       YYY    -126.2679    XXZ      40.7505    XYZ     -23.9643
       YYZ      96.7317    XZZ      88.2622    YZZ     -44.1197
       ZZZ      27.9639
    Hexadecapole Moments (Debye-Ang^3)
      XXXX   -1263.1637   XXXY      88.1899   XXYY    -284.4032
      XYYY     132.3282   YYYY    -403.5075   XXXZ    -160.7741
      XXYZ     120.8830   XYYZ    -141.5218   YYYZ     287.8810
      XXZZ    -578.8901   XYZZ     114.9594   YYZZ    -572.7912
      XZZZ     -66.0976   YZZZ     182.6030   ZZZZ   -1585.4229
 -----------------------------------------------------------------
 Total job time:  11.85s(wall), 155.19s(cpu) 
 Thu May 26 10:29:20 2022

        *************************************************************
        *                                                           *
        *  Thank you very much for using Q-Chem.  Have a nice day.  *
        *                                                           *
        *************************************************************


