                  Welcome to Q-Chem
     A Quantum Leap Into The Future Of Chemistry


 Q-Chem 5.4 (devel), Q-Chem, Inc., Pleasanton, CA (2021)

 E. Epifanovsky,  A. T. B. Gilbert,  Xintian Feng,  Joonho Lee,  Yuezhi Mao,  
 N. Mardirossian,  P. Pokhilko,  A. White,  M. Wormit,  M. P. Coons,  
 A. L. Dempwolff,  Zhengting Gan,  D. Hait,  P. R. Horn,  L. D. Jacobson,  
 I. Kaliman,  J. Kussmann,  A. W. Lange,  Ka Un Lao,  D. S. Levine,  Jie Liu,  
 S. C. McKenzie,  A. F. Morrison,  K. Nanda,  F. Plasser,  D. R. Rehn,  
 M. L. Vidal,  Zhi-Qiang You,  Ying Zhu,  B. Alam,  B. Albrecht,  
 A. Aldossary,  E. Alguire,  J. H. Andersen,  D. Barton,  K. Begam,  A. Behn,  
 Y. A. Bernard,  E. J. Berquist,  H. Burton,  A. Carreras,  K. Carter-Fenk,  
 R. Chakraborty,  A. D. Chien,  K. D. Closser,  V. Cofer-Shabica,  
 S. Dasgupta,  Jia Deng,  M. de Wergifosse,  M. Diedenhofen,  Hainam Do,  
 S. Ehlert,  Po-Tung Fang,  S. Fatehi,  Qingguo Feng,  T. Friedhoff,  
 J. Gayvert,  Qinghui Ge,  G. Gidofalvi,  M. Goldey,  J. Gomes,  
 C. Gonzalez-Espinoza,  S. Gulania,  A. Gunina,  M. W. D. Hanson-Heine,  
 P. H. P. Harbach,  A. W. Hauser,  M. F. Herbst,  M. Hernandez Vera,  
 M. Hodecker,  Z. C. Holden,  S. Houck,  Xunkun Huang,  Kerwin Hui,  
 B. C. Huynh,  M. Ivanov,  Hyunjun Ji,  Hanjie Jiang,  B. Kaduk,  S. Kaehler,  
 K. Khistyaev,  Jaehoon Kim,  P. Klunzinger,  Z. Koczor-Benda,  
 Joong Hoon Koh,  D. Kosenkov,  L. Koulias,  T. Kowalczyk,  C. M. Krauter,  
 K. Kue,  A. Kunitsa,  T. Kus,  A. Landau,  K. V. Lawler,  D. Lefrancois,  
 S. Lehtola,  Rain Li,  Yi-Pei Li,  Jiashu Liang,  M. Liebenthal,  
 Hung-Hsuan Lin,  You-Sheng Lin,  Fenglai Liu,  Kuan-Yu Liu,  
 M. Loipersberger,  A. Luenser,  A. Manjanath,  P. Manohar,  E. Mansoor,  
 S. F. Manzer,  Shan-Ping Mao,  A. V. Marenich,  T. Markovich,  S. Mason,  
 S. A. Maurer,  P. F. McLaughlin,  M. F. S. J. Menger,  J.-M. Mewes,  
 S. A. Mewes,  P. Morgante,  J. W. Mullinax,  K. J. Oosterbaan,  G. Paran,  
 Alexander C. Paul,  Suranjan K. Paul,  F. Pavosevic,  Zheng Pei,  S. Prager,  
 E. I. Proynov,  E. Ramos,  B. Rana,  A. E. Rask,  A. Rettig,  R. M. Richard,  
 F. Rob,  E. Rossomme,  T. Scheele,  M. Scheurer,  M. Schneider,  
 N. Sergueev,  S. M. Sharada,  W. Skomorowski,  D. W. Small,  C. J. Stein,  
 Yu-Chuan Su,  E. J. Sundstrom,  Zhen Tao,  J. Thirman,  T. Tsuchimochi,  
 N. M. Tubman,  S. P. Veccham,  O. Vydrov,  J. Wenzel,  J. Witte,  A. Yamada,  
 Kun Yao,  S. Yeganeh,  S. R. Yost,  A. Zech,  Igor Ying Zhang,  Xing Zhang,  
 Yu Zhang,  D. Zuev,  A. Aspuru-Guzik,  A. T. Bell,  N. A. Besley,  
 K. B. Bravaya,  B. R. Brooks,  D. Casanova,  Jeng-Da Chai,  S. Coriani,  
 C. J. Cramer,  A. E. DePrince, III,  R. A. DiStasio Jr.,  A. Dreuw,  
 B. D. Dunietz,  T. R. Furlani,  W. A. Goddard III,  S. Grimme,  
 S. Hammes-Schiffer,  T. Head-Gordon,  W. J. Hehre,  Chao-Ping Hsu,  
 T.-C. Jagau,  Yousung Jung,  A. Klamt,  Jing Kong,  D. S. Lambrecht,  
 WanZhen Liang,  N. J. Mayhall,  C. W. McCurdy,  J. B. Neaton,  
 C. Ochsenfeld,  J. A. Parkhill,  R. Peverati,  V. A. Rassolov,  Yihan Shao,  
 L. V. Slipchenko,  T. Stauch,  R. P. Steele,  J. E. Subotnik,  
 A. J. W. Thom,  A. Tkatchenko,  D. G. Truhlar,  T. Van Voorhis,  
 T. A. Wesolowski,  K. B. Whaley,  H. L. Woodcock III,  P. M. Zimmerman,  
 S. Faraji,  P. M. W. Gill,  M. Head-Gordon,  J. M. Herbert,  A. I. Krylov

 Additional authors for Version 5.4.1: 
 S. Kotaru,  Shaozhi Li,  Xiangyuan Li,  F. Matz,  A. Molle,  Haisheng Ren,  
 Yingli Su,  Hung-Yi Tsai,  C. Utku,  Fang Wang

 Contributors to earlier versions of Q-Chem not listed above: 
 R. D. Adamson,  B. Austin,  R. Baer,  J. Baker,  G. J. O. Beran,  
 K. Brandhorst,  S. T. Brown,  E. F. C. Byrd,  A. K. Chakraborty,  
 G. K. L. Chan,  Chun-Min Chang,  Yunqing Chen,  C.-L. Cheng,  
 Siu Hung Chien,  D. M. Chipman,  D. L. Crittenden,  H. Dachsel,  
 R. J. Doerksen,  A. D. Dutoi,  R. G. Edgar,  J. Fosso-Tande,  
 L. Fusti-Molnar,  D. Ghosh,  A. Ghysels,  A. Golubeva-Zadorozhnaya,  
 J. Gonthier,  M. S. Gordon,  S. R. Gwaltney,  G. Hawkins,  J. E. Herr,  
 A. Heyden,  S. Hirata,  E. G. Hohenstein,  G. Kedziora,  F. J. Keil,  
 C. Kelley,  Jihan Kim,  R. A. King,  R. Z. Khaliullin,  P. P. Korambath,  
 W. Kurlancheek,  A. Laurent,  A. M. Lee,  M. S. Lee,  S. V. Levchenko,  
 Ching Yeh Lin,  D. Liotard,  E. Livshits,  R. C. Lochan,  I. Lotan,  
 L. A. Martinez-Martinez,  P. E. Maslen,  N. Nair,  D. P. O'Neill,  
 D. Neuhauser,  E. Neuscamman,  C. M. Oana,  R. Olivares-Amaya,  R. Olson,  
 T. M. Perrine,  B. Peters,  P. A. Pieniazek,  A. Prociuk,  Y. M. Rhee,  
 J. Ritchie,  M. A. Rohrdanz,  E. Rosta,  N. J. Russ,  H. F. Schaefer III,  
 M. W. Schmidt,  N. E. Schultz,  S. Sharma,  N. Shenvi,  C. D. Sherrill,  
 A. C. Simmonett,  A. Sodt,  T. Stein,  D. Stuck,  K. S. Thanthiriwatte,  
 V. Vanovschi,  L. Vogt,  Tao Wang,  A. Warshel,  M. A. Watson,  
 C. F. Williams,  Q. Wu,  X. Xu,  Jun Yang,  W. Zhang,  Yan Zhao

 Please cite Q-Chem as follows:
 Y. Shao et al., Mol. Phys. 113, 184-215 (2015)
 DOI: 10.1080/00268976.2014.952696

 Q-Chem 5.4.1 for Intel X86 EM64T Linux

 Parts of Q-Chem use Armadillo 9.800.1 (Horizon Scraper).
 http://arma.sourceforge.net/

 Q-Chem begins on Thu May 26 10:29:06 2022  

 Host: gadi-cpu-clx-2674.gadi.nci.org.au
0

     Scratch files written to /jobfs/41312713.gadi-pbs/qchem3240453//
 Processing $rem in /apps/qchem/5.4.1/config/preferences:
 Processing $rem in /home/561/yj5695/.qchemrc:
 Symmetry turned off for PCM/SM12/SMD calculation
 Method-specific promolecule density matrix will be built for SM12 calculation

 Checking the input file for inconsistencies... 	...done.

--------------------------------------------------------------
User input:
--------------------------------------------------------------
$molecule
0  1
C -1.345869  0.719737 -0.828511
C -2.542943  0.776493 -1.537261
H -3.496877  0.725435 -1.021088
C -2.492808  0.908334 -2.923043
H -3.419687  0.959018 -3.487732
C -1.269337  0.980309 -3.597861
C -1.215999  1.137083 -5.092885
C -0.08258  0.914731 -2.853853
H  0.873995  0.970868 -3.367097
C -0.108778  0.783435 -1.470515
H  0.814634  0.737919 -0.900994
S -1.393896  0.496738  0.930228
O -0.151907  1.028678  1.493703
O -2.678622  0.998466  1.420803
N -1.38405 -1.123843  1.264333
H -0.529127 -1.569683  0.924437
H -0.567508  0.377229 -5.540367
H -2.211647  1.051322 -5.534958
H -2.205131 -1.590277  0.872614
H -0.804511  2.116408 -5.360893
$end

$rem
jobtype sp
exchange M062X
basis 6-31+G*
SMX_GAS_PHASE = TRUE
solvent_method sm12
$end

$smx
solvent water
charges mk
$end
--------------------------------------------------------------
 ----------------------------------------------------------------
             Standard Nuclear Orientation (Angstroms)
    I     Atom           X                Y                Z
 ----------------------------------------------------------------
    1      C      -1.3458690000     0.7197370000    -0.8285110000
    2      C      -2.5429430000     0.7764930000    -1.5372610000
    3      H      -3.4968770000     0.7254350000    -1.0210880000
    4      C      -2.4928080000     0.9083340000    -2.9230430000
    5      H      -3.4196870000     0.9590180000    -3.4877320000
    6      C      -1.2693370000     0.9803090000    -3.5978610000
    7      C      -1.2159990000     1.1370830000    -5.0928850000
    8      C      -0.0825800000     0.9147310000    -2.8538530000
    9      H       0.8739950000     0.9708680000    -3.3670970000
   10      C      -0.1087780000     0.7834350000    -1.4705150000
   11      H       0.8146340000     0.7379190000    -0.9009940000
   12      S      -1.3938960000     0.4967380000     0.9302280000
   13      O      -0.1519070000     1.0286780000     1.4937030000
   14      O      -2.6786220000     0.9984660000     1.4208030000
   15      N      -1.3840500000    -1.1238430000     1.2643330000
   16      H      -0.5291270000    -1.5696830000     0.9244370000
   17      H      -0.5675080000     0.3772290000    -5.5403670000
   18      H      -2.2116470000     1.0513220000    -5.5349580000
   19      H      -2.2051310000    -1.5902770000     0.8726140000
   20      H      -0.8045110000     2.1164080000    -5.3608930000
 ----------------------------------------------------------------
 Nuclear Repulsion Energy =         723.94514293 hartrees
 There are       45 alpha and       45 beta electrons
 Requested basis set is 6-31+G(d)
 There are 74 shells and 231 basis functions

 Total QAlloc Memory Limit   2000 MB
 Mega-Array Size       188 MB
 MEM_STATIC part       192 MB
 A cutoff of  1.0D-08 yielded   2227 shell pairs
 There are     23246 function pairs
 Smallest overlap matrix eigenvalue = 1.97E-06

 Q-Chem warning in module stvman/mkSTV.C, line 323:

 Overlap eigenvalue is smaller than square root of threshold
 Use THRESH >= 12 to get rid of this warning


 Scale SEOQF with 1.000000e-01/1.000000e-01/1.000000e-02

 Standard Electronic Orientation quadrupole field applied
 Nucleus-field energy     =     0.0000000084 hartrees
 ================ Generating on-the-fly Promolecule Density  ================
Attempting to make child job directory: /jobfs/41312713.gadi-pbs/qchem3240453//Frg1/
Attempting to make child job directory: /jobfs/41312713.gadi-pbs/qchem3240453//Frg2/
Attempting to make child job directory: /jobfs/41312713.gadi-pbs/qchem3240453//Frg3/
Attempting to make child job directory: /jobfs/41312713.gadi-pbs/qchem3240453//Frg4/
Attempting to make child job directory: /jobfs/41312713.gadi-pbs/qchem3240453//Frg5/
Creating input file /jobfs/41312713.gadi-pbs/qchem3240453/Frg1.input
using default PutDataFrgm: nothing
calling putenv with: QCSCRATCH=/jobfs/41312713.gadi-pbs/qchem3240453/ 
Spawning Job For Fragment 0
Done Job For Fragment 0
calling putenv with: QCSCRATCH=/jobfs/41312713.gadi-pbs 
calling putenv with: QCTHREADS=16 
Creating input file /jobfs/41312713.gadi-pbs/qchem3240453/Frg2.input
using default PutDataFrgm: nothing
calling putenv with: QCSCRATCH=/jobfs/41312713.gadi-pbs/qchem3240453/ 
Spawning Job For Fragment 1
Done Job For Fragment 1
calling putenv with: QCSCRATCH=/jobfs/41312713.gadi-pbs 
calling putenv with: QCTHREADS=16 
Creating input file /jobfs/41312713.gadi-pbs/qchem3240453/Frg3.input
using default PutDataFrgm: nothing
calling putenv with: QCSCRATCH=/jobfs/41312713.gadi-pbs/qchem3240453/ 
Spawning Job For Fragment 2
Done Job For Fragment 2
calling putenv with: QCSCRATCH=/jobfs/41312713.gadi-pbs 
calling putenv with: QCTHREADS=16 
Creating input file /jobfs/41312713.gadi-pbs/qchem3240453/Frg4.input
using default PutDataFrgm: nothing
calling putenv with: QCSCRATCH=/jobfs/41312713.gadi-pbs/qchem3240453/ 
Spawning Job For Fragment 3
Done Job For Fragment 3
calling putenv with: QCSCRATCH=/jobfs/41312713.gadi-pbs 
calling putenv with: QCTHREADS=16 
Creating input file /jobfs/41312713.gadi-pbs/qchem3240453/Frg5.input
using default PutDataFrgm: nothing
calling putenv with: QCSCRATCH=/jobfs/41312713.gadi-pbs/qchem3240453/ 
Spawning Job For Fragment 4
Done Job For Fragment 4
calling putenv with: QCSCRATCH=/jobfs/41312713.gadi-pbs 
calling putenv with: QCTHREADS=16 
 Time for running child jobs:  CPU 2.28 s  wall 2.10 s
 ============= Method Specific Promolecule Density Constructed =============
 Guess from superposition of atomic densities
 Warning:  Energy on first SCF cycle will be non-variational
 SAD guess density has 90.000000 electrons

 -----------------------------------------------------------------------
  General SCF calculation program by
  Eric Jon Sundstrom, Paul Horn, Yuezhi Mao, Dmitri Zuev, Alec White,
  David Stuck, Shaama M.S., Shane Yost, Joonho Lee, David Small,
  Daniel Levine, Susi Lehtola, Hugh Burton, Evgeny Epifanovsky,
  Bang C. Huynh
 -----------------------------------------------------------------------
 Exchange:     0.5400 Hartree-Fock + 1.0000 M06-2X
 Correlation:  1.0000 M06-2X
 Using SG-3 standard quadrature grid
 using 16 threads for integral computing
 -------------------------------------------------------
 OpenMP Integral computing Module                
 Release: version 1.0, May 2013, Q-Chem Inc. Pittsburgh 
 -------------------------------------------------------
 A restricted SCF calculation will be
 performed using DIIS
 SCF converges when DIIS error is below 1.0e-05
 ---------------------------------------
  Cycle       Energy         DIIS error
 ---------------------------------------
    1    -878.7348655310      5.07e-02  
    2    -875.0137503319      6.53e-03  
    3    -874.8475623663      9.03e-03  
    4    -875.2490767906      1.07e-03  
    5    -875.2553726790      3.93e-04  
    6    -875.2562979435      9.77e-05  
    7    -875.2563611872      2.89e-05  
    8    -875.2563670391      8.19e-06  Convergence criterion met
 ---------------------------------------
 SCF time:   CPU 77.75s  wall 5.00s 
 SCF   energy in the final basis set =     -875.2563670391
 Total energy in the final basis set =     -875.2563670391
 Exchange:     0.5400 Hartree-Fock + 1.0000 M06-2X
 Correlation:  1.0000 M06-2X
 Using SG-3 standard quadrature grid
 
 SM12 calculation using Merz-Singh-Kollman charges
 Citation of the SM12 model:
 Marenich, A.V.; Cramer, C.J.; Truhlar, D.G.
 J. Chem. Theory Comput. 2013, 9, 609-612.
 iSolventCode=           1
 Solvent: water                                                           
 
  Building new vdw surfaces
         Merz-Kollman ESP Net Atomic Charges

     Atom                 Charge (a.u.)
  ----------------------------------------
      1 C                    -0.145335
      2 C                    -0.150969
      3 H                     0.177672
      4 C                    -0.238017
      5 H                     0.162512
      6 C                     0.389483
      7 C                    -0.702336
      8 C                    -0.267105
      9 H                     0.176401
     10 C                    -0.144838
     11 H                     0.178121
     12 S                     1.093180
     13 O                    -0.518371
     14 O                    -0.517942
     15 N                    -0.822993
     16 H                     0.373958
     17 H                     0.181849
     18 H                     0.189580
     19 H                     0.374672
     20 H                     0.210479
  ----------------------------------------
  Sum of atomic charges =     0.000000

  Related Dipole Moment =     7.2592 (X  0.2789 Y -3.2522 Z -6.4839)


 Charges (in A.U.) from Merz-Kollman fitting 
 -----------------------------------------------
 Center     Atomic                  MZ       
 Number     Number                  Charge
 -----------------------------------------------
    1          6                   -0.145335
    2          6                   -0.150969
    3          1                    0.177672
    4          6                   -0.238017
    5          1                    0.162512
    6          6                    0.389483
    7          6                   -0.702336
    8          6                   -0.267105
    9          1                    0.176401
   10          6                   -0.144838
   11          1                    0.178121
   12         16                    1.093180
   13          8                   -0.518371
   14          8                   -0.517942
   15          7                   -0.822993
   16          1                    0.373958
   17          1                    0.181849
   18          1                    0.189580
   19          1                    0.374672
   20          1                    0.210479
 -----------------------------------------------
 A restricted SCF calculation will be
 performed using Roothaan-Hall, DIIS
 SCF converges when DIIS error is below 1.0e-05
 ---------------------------------------
  Cycle       Energy         DIIS error
 ---------------------------------------
         Merz-Kollman ESP Net Atomic Charges

     Atom                 Charge (a.u.)
  ----------------------------------------
      1 C                    -0.134447
      2 C                    -0.184531
      3 H                     0.187702
      4 C                    -0.218855
      5 H                     0.173135
      6 C                     0.382997
      7 C                    -0.712456
      8 C                    -0.249312
      9 H                     0.187937
     10 C                    -0.177922
     11 H                     0.188548
     12 S                     1.137611
     13 O                    -0.576102
     14 O                    -0.575493
     15 N                    -0.816178
     16 H                     0.392374
     17 H                     0.187653
     18 H                     0.196006
     19 H                     0.392832
     20 H                     0.218501
  ----------------------------------------
  Sum of atomic charges =     0.000000

  Related Dipole Moment =     8.5289 (X  0.3297 Y -3.8587 Z -7.5989)


 Charges (in A.U.) from Merz-Kollman fitting 
 -----------------------------------------------
 Center     Atomic                  MZ       
 Number     Number                  Charge
 -----------------------------------------------
    1          6                   -0.134447
    2          6                   -0.184531
    3          1                    0.187702
    4          6                   -0.218855
    5          1                    0.173135
    6          6                    0.382997
    7          6                   -0.712456
    8          6                   -0.249312
    9          1                    0.187937
   10          6                   -0.177922
   11          1                    0.188548
   12         16                    1.137611
   13          8                   -0.576102
   14          8                   -0.575493
   15          7                   -0.816178
   16          1                    0.392374
   17          1                    0.187653
   18          1                    0.196006
   19          1                    0.392832
   20          1                    0.218501
 -----------------------------------------------
    1    -875.2563670758      4.81e-04  Roothaan Step
 ---------------------------------------
  Cycle       Energy         DIIS error
 ---------------------------------------
         Merz-Kollman ESP Net Atomic Charges

     Atom                 Charge (a.u.)
  ----------------------------------------
      1 C                    -0.110158
      2 C                    -0.192420
      3 H                     0.187302
      4 C                    -0.214618
      5 H                     0.175830
      6 C                     0.364022
      7 C                    -0.711364
      8 C                    -0.248625
      9 H                     0.191474
     10 C                    -0.184446
     11 H                     0.188070
     12 S                     1.095847
     13 O                    -0.553741
     14 O                    -0.552951
     15 N                    -0.824992
     16 H                     0.391030
     17 H                     0.187564
     18 H                     0.197473
     19 H                     0.391374
     20 H                     0.223328
  ----------------------------------------
  Sum of atomic charges =     0.000000

  Related Dipole Moment =     8.3850 (X  0.3229 Y -3.6207 Z -7.5561)


 Charges (in A.U.) from Merz-Kollman fitting 
 -----------------------------------------------
 Center     Atomic                  MZ       
 Number     Number                  Charge
 -----------------------------------------------
    1          6                   -0.110158
    2          6                   -0.192420
    3          1                    0.187302
    4          6                   -0.214618
    5          1                    0.175830
    6          6                    0.364022
    7          6                   -0.711364
    8          6                   -0.248625
    9          1                    0.191474
   10          6                   -0.184446
   11          1                    0.188070
   12         16                    1.095847
   13          8                   -0.553741
   14          8                   -0.552951
   15          7                   -0.824992
   16          1                    0.391030
   17          1                    0.187564
   18          1                    0.197473
   19          1                    0.391374
   20          1                    0.223328
 -----------------------------------------------
    1    -875.2518678739      3.43e-04  
         Merz-Kollman ESP Net Atomic Charges

     Atom                 Charge (a.u.)
  ----------------------------------------
      1 C                    -0.118193
      2 C                    -0.191327
      3 H                     0.187672
      4 C                    -0.216967
      5 H                     0.175784
      6 C                     0.373312
      7 C                    -0.714487
      8 C                    -0.249936
      9 H                     0.191275
     10 C                    -0.183806
     11 H                     0.188508
     12 S                     1.135977
     13 O                    -0.575274
     14 O                    -0.574545
     15 N                    -0.820350
     16 H                     0.391380
     17 H                     0.188486
     18 H                     0.197952
     19 H                     0.391773
     20 H                     0.222766
  ----------------------------------------
  Sum of atomic charges =     0.000000

  Related Dipole Moment =     8.5678 (X  0.3303 Y -3.7762 Z -7.6836)


 Charges (in A.U.) from Merz-Kollman fitting 
 -----------------------------------------------
 Center     Atomic                  MZ       
 Number     Number                  Charge
 -----------------------------------------------
    1          6                   -0.118193
    2          6                   -0.191327
    3          1                    0.187672
    4          6                   -0.216967
    5          1                    0.175784
    6          6                    0.373312
    7          6                   -0.714487
    8          6                   -0.249936
    9          1                    0.191275
   10          6                   -0.183806
   11          1                    0.188508
   12         16                    1.135977
   13          8                   -0.575274
   14          8                   -0.574545
   15          7                   -0.820350
   16          1                    0.391380
   17          1                    0.188486
   18          1                    0.197952
   19          1                    0.391773
   20          1                    0.222766
 -----------------------------------------------
    2    -875.2524813129      4.17e-04  
         Merz-Kollman ESP Net Atomic Charges

     Atom                 Charge (a.u.)
  ----------------------------------------
      1 C                    -0.121303
      2 C                    -0.191571
      3 H                     0.187889
      4 C                    -0.215620
      5 H                     0.176126
      6 C                     0.374090
      7 C                    -0.714634
      8 C                    -0.248591
      9 H                     0.191626
     10 C                    -0.184138
     11 H                     0.188746
     12 S                     1.128287
     13 O                    -0.573109
     14 O                    -0.572370
     15 N                    -0.819863
     16 H                     0.392061
     17 H                     0.188695
     18 H                     0.198121
     19 H                     0.392437
     20 H                     0.223122
  ----------------------------------------
  Sum of atomic charges =     0.000000

  Related Dipole Moment =     8.6198 (X  0.3323 Y -3.7748 Z -7.7422)


 Charges (in A.U.) from Merz-Kollman fitting 
 -----------------------------------------------
 Center     Atomic                  MZ       
 Number     Number                  Charge
 -----------------------------------------------
    1          6                   -0.121303
    2          6                   -0.191571
    3          1                    0.187889
    4          6                   -0.215620
    5          1                    0.176126
    6          6                    0.374090
    7          6                   -0.714634
    8          6                   -0.248591
    9          1                    0.191626
   10          6                   -0.184138
   11          1                    0.188746
   12         16                    1.128287
   13          8                   -0.573109
   14          8                   -0.572370
   15          7                   -0.819863
   16          1                    0.392061
   17          1                    0.188695
   18          1                    0.198121
   19          1                    0.392437
   20          1                    0.223122
 -----------------------------------------------
    3    -875.2520863141      3.88e-05  
         Merz-Kollman ESP Net Atomic Charges

     Atom                 Charge (a.u.)
  ----------------------------------------
      1 C                    -0.118497
      2 C                    -0.191870
      3 H                     0.187809
      4 C                    -0.216173
      5 H                     0.176426
      6 C                     0.372532
      7 C                    -0.714880
      8 C                    -0.249354
      9 H                     0.191974
     10 C                    -0.184295
     11 H                     0.188653
     12 S                     1.131139
     13 O                    -0.574400
     14 O                    -0.573654
     15 N                    -0.820639
     16 H                     0.392026
     17 H                     0.188908
     18 H                     0.198387
     19 H                     0.392400
     20 H                     0.223510
  ----------------------------------------
  Sum of atomic charges =     0.000000

  Related Dipole Moment =     8.6192 (X  0.3324 Y -3.7742 Z -7.7418)


 Charges (in A.U.) from Merz-Kollman fitting 
 -----------------------------------------------
 Center     Atomic                  MZ       
 Number     Number                  Charge
 -----------------------------------------------
    1          6                   -0.118497
    2          6                   -0.191870
    3          1                    0.187809
    4          6                   -0.216173
    5          1                    0.176426
    6          6                    0.372532
    7          6                   -0.714880
    8          6                   -0.249354
    9          1                    0.191974
   10          6                   -0.184295
   11          1                    0.188653
   12         16                    1.131139
   13          8                   -0.574400
   14          8                   -0.573654
   15          7                   -0.820639
   16          1                    0.392026
   17          1                    0.188908
   18          1                    0.198387
   19          1                    0.392400
   20          1                    0.223510
 -----------------------------------------------
    4    -875.2519437954      2.12e-05  
    5    -875.2519028985      5.16e-06  Convergence criterion met
 ---------------------------------------
 SCF time:   CPU 73.72s  wall 4.00s 
(0)  E-EN(g) gas-phase elect-nuc energy                 -875.256367039 a.u.
(1)  E-EN(liq) elect-nuc energy of solute               -875.251902898 a.u.
(2)  G-P(liq) polarization free energy of solvation           -19.0171 kcal/mol
(3)  G-ENP(liq) elect-nuc-pol free energy of system     -875.282208576 a.u.
(4)  G-CDS(liq) cavity-dispersion-solvent structure 
     free energy                                                2.9692 kcal/mol
(5)  G-P-CDS(liq) = G-P(liq) + G-CDS(liq) = (2) + (4)         -16.0479 kcal/mol
(6)  G-S(liq) free energy of system = (1) + (5)         -875.277476822 a.u.
(7)  DeltaE-EN(liq) elect-nuc reorganization
     energy of solute molecule (7) = (1) - (0)                  2.8013 kcal/mol
(8)  DeltaG-ENP(liq) elect-nuc-pol free energy
     of solvation (8) = (3) - (0)                             -16.2158 kcal/mol
(9)  DeltaG-S(liq) free energy of  solvation
     (9) = (6) - (0)                                          -13.2466 kcal/mol
 SCF   energy in the final basis set =     -875.2774768221
 Total energy in the final basis set =     -875.2774768221
 
 --------------------------------------------------------------
 
                    Orbital Energies (a.u.)
 --------------------------------------------------------------
 
 Alpha MOs
 -- Occupied --
-90.1738 -19.6573 -19.6573 -14.8048 -10.6013 -10.5842 -10.5833 -10.5832
-10.5714 -10.5713 -10.5491  -8.4878  -6.4100  -6.4097  -6.4086  -1.2574
 -1.1439  -1.0333  -0.9911  -0.9031  -0.8680  -0.8142  -0.7463  -0.7163
 -0.6826  -0.6435  -0.6155  -0.5956  -0.5604  -0.5510  -0.5325  -0.5285
 -0.5111  -0.4993  -0.4604  -0.4556  -0.4399  -0.4328  -0.4204  -0.4184
 -0.4006  -0.3995  -0.3802  -0.3295  -0.3178
 -- Virtual --
 -0.0177  -0.0036  -0.0021   0.0212   0.0293   0.0382   0.0476   0.0504
  0.0588   0.0636   0.0699   0.0762   0.0836   0.0897   0.0984   0.1025
  0.1052   0.1094   0.1104   0.1292   0.1324   0.1398   0.1447   0.1505
  0.1527   0.1633   0.1653   0.1677   0.1753   0.1812   0.1891   0.2009
  0.2055   0.2106   0.2195   0.2219   0.2270   0.2326   0.2353   0.2371
  0.2493   0.2578   0.2685   0.2735   0.2773   0.2807   0.2918   0.2928
  0.3002   0.3048   0.3116   0.3163   0.3174   0.3248   0.3277   0.3603
  0.3652   0.3812   0.3843   0.3910   0.3975   0.4218   0.4261   0.4595
  0.4704   0.5524   0.5584   0.5668   0.6230   0.6577   0.6733   0.6871
  0.7028   0.7159   0.7325   0.7435   0.7464   0.7547   0.7625   0.7836
  0.7992   0.8135   0.8198   0.8329   0.8364   0.8857   0.8994   0.9311
  0.9465   0.9621   0.9937   0.9944   1.0122   1.0289   1.0315   1.0381
  1.0541   1.0927   1.0959   1.1099   1.1250   1.1259   1.1324   1.1544
  1.1638   1.1928   1.1959   1.2150   1.2477   1.2566   1.2833   1.3116
  1.3286   1.3624   1.3686   1.3706   1.3852   1.3937   1.4008   1.4032
  1.4397   1.4892   1.4989   1.5062   1.5177   1.5417   1.5616   1.6130
  1.6880   1.7331   1.7998   1.8043   1.8250   1.8502   1.8567   1.8844
  1.8928   1.9001   1.9197   1.9379   1.9635   1.9654   2.0167   2.0260
  2.0434   2.1190   2.1331   2.1493   2.1629   2.1656   2.1860   2.2030
  2.2258   2.2376   2.2798   2.3129   2.3354   2.3411   2.3952   2.4139
  2.4444   2.4552   2.4971   2.6221   2.6531   2.6695   2.7276   2.7805
  2.7832   2.8196   2.9008   2.9315   2.9351   3.0688   3.3776   3.8829
  4.0778   4.2227   4.2505   4.2605   4.2743   4.3209   4.3721   4.4085
  4.4813   4.7210
 --------------------------------------------------------------
 
          Ground-State Mulliken Net Atomic Charges

     Atom                 Charge (a.u.)
  ----------------------------------------
      1 C                    -1.927050
      2 C                    -0.120549
      3 H                     0.278968
      4 C                    -0.388758
      5 H                     0.265348
      6 C                     0.373005
      7 C                    -0.112302
      8 C                     0.438099
      9 H                     0.269032
     10 C                     0.003127
     11 H                     0.279227
     12 S                     1.200284
     13 O                    -0.749630
     14 O                    -0.751938
     15 N                    -0.814792
     16 H                     0.506029
     17 H                     0.247374
     18 H                     0.234124
     19 H                     0.506210
     20 H                     0.264191
  ----------------------------------------
  Sum of atomic charges =     0.000000

         Merz-Kollman ESP Net Atomic Charges

     Atom                 Charge (a.u.)
  ----------------------------------------
      1 C                    -0.119413
      2 C                    -0.191769
      3 H                     0.187788
      4 C                    -0.216160
      5 H                     0.176400
      6 C                     0.373221
      7 C                    -0.715080
      8 C                    -0.249341
      9 H                     0.191955
     10 C                    -0.184227
     11 H                     0.188639
     12 S                     1.131727
     13 O                    -0.574550
     14 O                    -0.573804
     15 N                    -0.820489
     16 H                     0.391927
     17 H                     0.188920
     18 H                     0.198405
     19 H                     0.392302
     20 H                     0.223551
  ----------------------------------------
  Sum of atomic charges =     0.000000

  Related Dipole Moment =     8.6237 (X  0.3325 Y -3.7736 Z -7.7471)

 -----------------------------------------------------------------
                    Cartesian Multipole Moments
 -----------------------------------------------------------------
    Charge (ESU x 10^10)
                 0.0000
    Dipole Moment (Debye)
         X       0.3309      Y      -3.7338      Z      -7.7274
       Tot       8.5886
    Quadrupole Moments (Debye-Ang)
        XX     -70.8422     XY       5.3968     YY     -72.9046
        XZ      10.1893     YZ     -10.4569     ZZ     -64.9099
    Octopole Moments (Debye-Ang^2)
       XXX     284.0284    XXY     -60.1963    XYY      98.2629
       YYY    -157.6058    XXZ      37.1210    XYZ      13.1850
       YYZ      72.5952    XZZ      89.2722    YZZ     -29.8984
       ZZZ     130.1176
    Hexadecapole Moments (Debye-Ang^3)
      XXXX   -1190.6639   XXXY     219.3343   XXYY    -285.2900
      XYYY     209.3876   YYYY    -441.9536   XXXZ    -155.6550
      XXYZ      50.2747   XYYZ     -92.9726   YYYZ     286.3401
      XXZZ    -618.8355   XYZZ      40.3233   YYZZ    -527.6807
      XZZZ    -158.8019   YZZZ     185.8440   ZZZZ   -2379.6911
 -----------------------------------------------------------------
 Total job time:  12.06s(wall), 158.41s(cpu) 
 Thu May 26 10:29:18 2022

        *************************************************************
        *                                                           *
        *  Thank you very much for using Q-Chem.  Have a nice day.  *
        *                                                           *
        *************************************************************


