                  Welcome to Q-Chem
     A Quantum Leap Into The Future Of Chemistry


 Q-Chem 5.4 (devel), Q-Chem, Inc., Pleasanton, CA (2021)

 E. Epifanovsky,  A. T. B. Gilbert,  Xintian Feng,  Joonho Lee,  Yuezhi Mao,  
 N. Mardirossian,  P. Pokhilko,  A. White,  M. Wormit,  M. P. Coons,  
 A. L. Dempwolff,  Zhengting Gan,  D. Hait,  P. R. Horn,  L. D. Jacobson,  
 I. Kaliman,  J. Kussmann,  A. W. Lange,  Ka Un Lao,  D. S. Levine,  Jie Liu,  
 S. C. McKenzie,  A. F. Morrison,  K. Nanda,  F. Plasser,  D. R. Rehn,  
 M. L. Vidal,  Zhi-Qiang You,  Ying Zhu,  B. Alam,  B. Albrecht,  
 A. Aldossary,  E. Alguire,  J. H. Andersen,  D. Barton,  K. Begam,  A. Behn,  
 Y. A. Bernard,  E. J. Berquist,  H. Burton,  A. Carreras,  K. Carter-Fenk,  
 R. Chakraborty,  A. D. Chien,  K. D. Closser,  V. Cofer-Shabica,  
 S. Dasgupta,  Jia Deng,  M. de Wergifosse,  M. Diedenhofen,  Hainam Do,  
 S. Ehlert,  Po-Tung Fang,  S. Fatehi,  Qingguo Feng,  T. Friedhoff,  
 J. Gayvert,  Qinghui Ge,  G. Gidofalvi,  M. Goldey,  J. Gomes,  
 C. Gonzalez-Espinoza,  S. Gulania,  A. Gunina,  M. W. D. Hanson-Heine,  
 P. H. P. Harbach,  A. W. Hauser,  M. F. Herbst,  M. Hernandez Vera,  
 M. Hodecker,  Z. C. Holden,  S. Houck,  Xunkun Huang,  Kerwin Hui,  
 B. C. Huynh,  M. Ivanov,  Hyunjun Ji,  Hanjie Jiang,  B. Kaduk,  S. Kaehler,  
 K. Khistyaev,  Jaehoon Kim,  P. Klunzinger,  Z. Koczor-Benda,  
 Joong Hoon Koh,  D. Kosenkov,  L. Koulias,  T. Kowalczyk,  C. M. Krauter,  
 K. Kue,  A. Kunitsa,  T. Kus,  A. Landau,  K. V. Lawler,  D. Lefrancois,  
 S. Lehtola,  Rain Li,  Yi-Pei Li,  Jiashu Liang,  M. Liebenthal,  
 Hung-Hsuan Lin,  You-Sheng Lin,  Fenglai Liu,  Kuan-Yu Liu,  
 M. Loipersberger,  A. Luenser,  A. Manjanath,  P. Manohar,  E. Mansoor,  
 S. F. Manzer,  Shan-Ping Mao,  A. V. Marenich,  T. Markovich,  S. Mason,  
 S. A. Maurer,  P. F. McLaughlin,  M. F. S. J. Menger,  J.-M. Mewes,  
 S. A. Mewes,  P. Morgante,  J. W. Mullinax,  K. J. Oosterbaan,  G. Paran,  
 Alexander C. Paul,  Suranjan K. Paul,  F. Pavosevic,  Zheng Pei,  S. Prager,  
 E. I. Proynov,  E. Ramos,  B. Rana,  A. E. Rask,  A. Rettig,  R. M. Richard,  
 F. Rob,  E. Rossomme,  T. Scheele,  M. Scheurer,  M. Schneider,  
 N. Sergueev,  S. M. Sharada,  W. Skomorowski,  D. W. Small,  C. J. Stein,  
 Yu-Chuan Su,  E. J. Sundstrom,  Zhen Tao,  J. Thirman,  T. Tsuchimochi,  
 N. M. Tubman,  S. P. Veccham,  O. Vydrov,  J. Wenzel,  J. Witte,  A. Yamada,  
 Kun Yao,  S. Yeganeh,  S. R. Yost,  A. Zech,  Igor Ying Zhang,  Xing Zhang,  
 Yu Zhang,  D. Zuev,  A. Aspuru-Guzik,  A. T. Bell,  N. A. Besley,  
 K. B. Bravaya,  B. R. Brooks,  D. Casanova,  Jeng-Da Chai,  S. Coriani,  
 C. J. Cramer,  A. E. DePrince, III,  R. A. DiStasio Jr.,  A. Dreuw,  
 B. D. Dunietz,  T. R. Furlani,  W. A. Goddard III,  S. Grimme,  
 S. Hammes-Schiffer,  T. Head-Gordon,  W. J. Hehre,  Chao-Ping Hsu,  
 T.-C. Jagau,  Yousung Jung,  A. Klamt,  Jing Kong,  D. S. Lambrecht,  
 WanZhen Liang,  N. J. Mayhall,  C. W. McCurdy,  J. B. Neaton,  
 C. Ochsenfeld,  J. A. Parkhill,  R. Peverati,  V. A. Rassolov,  Yihan Shao,  
 L. V. Slipchenko,  T. Stauch,  R. P. Steele,  J. E. Subotnik,  
 A. J. W. Thom,  A. Tkatchenko,  D. G. Truhlar,  T. Van Voorhis,  
 T. A. Wesolowski,  K. B. Whaley,  H. L. Woodcock III,  P. M. Zimmerman,  
 S. Faraji,  P. M. W. Gill,  M. Head-Gordon,  J. M. Herbert,  A. I. Krylov

 Additional authors for Version 5.4.1: 
 S. Kotaru,  Shaozhi Li,  Xiangyuan Li,  F. Matz,  A. Molle,  Haisheng Ren,  
 Yingli Su,  Hung-Yi Tsai,  C. Utku,  Fang Wang

 Contributors to earlier versions of Q-Chem not listed above: 
 R. D. Adamson,  B. Austin,  R. Baer,  J. Baker,  G. J. O. Beran,  
 K. Brandhorst,  S. T. Brown,  E. F. C. Byrd,  A. K. Chakraborty,  
 G. K. L. Chan,  Chun-Min Chang,  Yunqing Chen,  C.-L. Cheng,  
 Siu Hung Chien,  D. M. Chipman,  D. L. Crittenden,  H. Dachsel,  
 R. J. Doerksen,  A. D. Dutoi,  R. G. Edgar,  J. Fosso-Tande,  
 L. Fusti-Molnar,  D. Ghosh,  A. Ghysels,  A. Golubeva-Zadorozhnaya,  
 J. Gonthier,  M. S. Gordon,  S. R. Gwaltney,  G. Hawkins,  J. E. Herr,  
 A. Heyden,  S. Hirata,  E. G. Hohenstein,  G. Kedziora,  F. J. Keil,  
 C. Kelley,  Jihan Kim,  R. A. King,  R. Z. Khaliullin,  P. P. Korambath,  
 W. Kurlancheek,  A. Laurent,  A. M. Lee,  M. S. Lee,  S. V. Levchenko,  
 Ching Yeh Lin,  D. Liotard,  E. Livshits,  R. C. Lochan,  I. Lotan,  
 L. A. Martinez-Martinez,  P. E. Maslen,  N. Nair,  D. P. O'Neill,  
 D. Neuhauser,  E. Neuscamman,  C. M. Oana,  R. Olivares-Amaya,  R. Olson,  
 T. M. Perrine,  B. Peters,  P. A. Pieniazek,  A. Prociuk,  Y. M. Rhee,  
 J. Ritchie,  M. A. Rohrdanz,  E. Rosta,  N. J. Russ,  H. F. Schaefer III,  
 M. W. Schmidt,  N. E. Schultz,  S. Sharma,  N. Shenvi,  C. D. Sherrill,  
 A. C. Simmonett,  A. Sodt,  T. Stein,  D. Stuck,  K. S. Thanthiriwatte,  
 V. Vanovschi,  L. Vogt,  Tao Wang,  A. Warshel,  M. A. Watson,  
 C. F. Williams,  Q. Wu,  X. Xu,  Jun Yang,  W. Zhang,  Yan Zhao

 Please cite Q-Chem as follows:
 Y. Shao et al., Mol. Phys. 113, 184-215 (2015)
 DOI: 10.1080/00268976.2014.952696

 Q-Chem 5.4.1 for Intel X86 EM64T Linux

 Parts of Q-Chem use Armadillo 9.800.1 (Horizon Scraper).
 http://arma.sourceforge.net/

 Q-Chem begins on Thu May 26 10:29:06 2022  

 Host: gadi-cpu-clx-2674.gadi.nci.org.au
0

     Scratch files written to /jobfs/41312714.gadi-pbs/qchem3240490//
 Processing $rem in /apps/qchem/5.4.1/config/preferences:
 Processing $rem in /home/561/yj5695/.qchemrc:
 Symmetry turned off for PCM/SM12/SMD calculation
 Method-specific promolecule density matrix will be built for SM12 calculation

 Checking the input file for inconsistencies... 	...done.

--------------------------------------------------------------
User input:
--------------------------------------------------------------
$molecule
0  1
C -1.2203593352  0.5098599602 -0.8517197984
C -2.3802109995  1.0403818708 -1.4155096396
H -3.240758252  1.2776964786 -0.7979804563
C -2.4250097438  1.2546148033 -2.789024322
H -3.3073049009  1.6585015038 -3.2737256722
C -1.3031943783  0.9319182987 -3.5388214936
C -0.141236883  0.4062183973 -2.9927002493
H  0.7027710937  0.1688185569 -3.6312869775
C -0.0997758668  0.1931863729 -1.6188745161
H  0.7915566301 -0.2203115963 -1.1576173398
S -1.1451330372  0.2897386701  0.9086254773
O -2.512559671  0.1337401757  1.4042469971
O -0.1505347807 -0.7444035944  1.1935154133
N -0.5678716104  1.6781128694  1.5935418986
H -1.1875878863  2.4714202131  1.4153023943
H  0.3806590794  1.888417492  1.2753878252
F -1.3457624583  1.1370445278 -4.8703295409
$end

$rem
jobtype sp
exchange M062X
basis 6-31+G*
SMX_GAS_PHASE = TRUE
solvent_method sm12
$end

$smx
solvent water
charges mk
$end
--------------------------------------------------------------
 ----------------------------------------------------------------
             Standard Nuclear Orientation (Angstroms)
    I     Atom           X                Y                Z
 ----------------------------------------------------------------
    1      C      -1.2203593352     0.5098599602    -0.8517197984
    2      C      -2.3802109995     1.0403818708    -1.4155096396
    3      H      -3.2407582520     1.2776964786    -0.7979804563
    4      C      -2.4250097438     1.2546148033    -2.7890243220
    5      H      -3.3073049009     1.6585015038    -3.2737256722
    6      C      -1.3031943783     0.9319182987    -3.5388214936
    7      C      -0.1412368830     0.4062183973    -2.9927002493
    8      H       0.7027710937     0.1688185569    -3.6312869775
    9      C      -0.0997758668     0.1931863729    -1.6188745161
   10      H       0.7915566301    -0.2203115963    -1.1576173398
   11      S      -1.1451330372     0.2897386701     0.9086254773
   12      O      -2.5125596710     0.1337401757     1.4042469971
   13      O      -0.1505347807    -0.7444035944     1.1935154133
   14      N      -0.5678716104     1.6781128694     1.5935418986
   15      H      -1.1875878863     2.4714202131     1.4153023943
   16      H       0.3806590794     1.8884174920     1.2753878252
   17      F      -1.3457624583     1.1370445278    -4.8703295409
 ----------------------------------------------------------------
 Nuclear Repulsion Energy =         726.47416857 hartrees
 There are       45 alpha and       45 beta electrons
 Requested basis set is 6-31+G(d)
 There are 68 shells and 225 basis functions

 Total QAlloc Memory Limit   2000 MB
 Mega-Array Size       188 MB
 MEM_STATIC part       192 MB
 A cutoff of  1.0D-08 yielded   1945 shell pairs
 There are     22358 function pairs
 Smallest overlap matrix eigenvalue = 3.41E-06

 Q-Chem warning in module stvman/mkSTV.C, line 323:

 Overlap eigenvalue is smaller than square root of threshold
 Use THRESH >= 12 to get rid of this warning


 Scale SEOQF with 1.000000e-01/1.000000e-01/1.000000e-01

 Standard Electronic Orientation quadrupole field applied
 Nucleus-field energy     =    -0.0000000419 hartrees
 ================ Generating on-the-fly Promolecule Density  ================
Attempting to make child job directory: /jobfs/41312714.gadi-pbs/qchem3240490//Frg1/
Attempting to make child job directory: /jobfs/41312714.gadi-pbs/qchem3240490//Frg2/
Attempting to make child job directory: /jobfs/41312714.gadi-pbs/qchem3240490//Frg3/
Attempting to make child job directory: /jobfs/41312714.gadi-pbs/qchem3240490//Frg4/
Attempting to make child job directory: /jobfs/41312714.gadi-pbs/qchem3240490//Frg5/
Attempting to make child job directory: /jobfs/41312714.gadi-pbs/qchem3240490//Frg6/
Creating input file /jobfs/41312714.gadi-pbs/qchem3240490/Frg1.input
using default PutDataFrgm: nothing
calling putenv with: QCSCRATCH=/jobfs/41312714.gadi-pbs/qchem3240490/ 
Spawning Job For Fragment 0
Done Job For Fragment 0
calling putenv with: QCSCRATCH=/jobfs/41312714.gadi-pbs 
calling putenv with: QCTHREADS=16 
Creating input file /jobfs/41312714.gadi-pbs/qchem3240490/Frg2.input
using default PutDataFrgm: nothing
calling putenv with: QCSCRATCH=/jobfs/41312714.gadi-pbs/qchem3240490/ 
Spawning Job For Fragment 1
Done Job For Fragment 1
calling putenv with: QCSCRATCH=/jobfs/41312714.gadi-pbs 
calling putenv with: QCTHREADS=16 
Creating input file /jobfs/41312714.gadi-pbs/qchem3240490/Frg3.input
using default PutDataFrgm: nothing
calling putenv with: QCSCRATCH=/jobfs/41312714.gadi-pbs/qchem3240490/ 
Spawning Job For Fragment 2
Done Job For Fragment 2
calling putenv with: QCSCRATCH=/jobfs/41312714.gadi-pbs 
calling putenv with: QCTHREADS=16 
Creating input file /jobfs/41312714.gadi-pbs/qchem3240490/Frg4.input
using default PutDataFrgm: nothing
calling putenv with: QCSCRATCH=/jobfs/41312714.gadi-pbs/qchem3240490/ 
Spawning Job For Fragment 3
Done Job For Fragment 3
calling putenv with: QCSCRATCH=/jobfs/41312714.gadi-pbs 
calling putenv with: QCTHREADS=16 
Creating input file /jobfs/41312714.gadi-pbs/qchem3240490/Frg5.input
using default PutDataFrgm: nothing
calling putenv with: QCSCRATCH=/jobfs/41312714.gadi-pbs/qchem3240490/ 
Spawning Job For Fragment 4
Done Job For Fragment 4
calling putenv with: QCSCRATCH=/jobfs/41312714.gadi-pbs 
calling putenv with: QCTHREADS=16 
Creating input file /jobfs/41312714.gadi-pbs/qchem3240490/Frg6.input
using default PutDataFrgm: nothing
calling putenv with: QCSCRATCH=/jobfs/41312714.gadi-pbs/qchem3240490/ 
Spawning Job For Fragment 5
Done Job For Fragment 5
calling putenv with: QCSCRATCH=/jobfs/41312714.gadi-pbs 
calling putenv with: QCTHREADS=16 
 Time for running child jobs:  CPU 2.29 s  wall 2.85 s
 ============= Method Specific Promolecule Density Constructed =============
 Guess from superposition of atomic densities
 Warning:  Energy on first SCF cycle will be non-variational
 SAD guess density has 90.000000 electrons

 -----------------------------------------------------------------------
  General SCF calculation program by
  Eric Jon Sundstrom, Paul Horn, Yuezhi Mao, Dmitri Zuev, Alec White,
  David Stuck, Shaama M.S., Shane Yost, Joonho Lee, David Small,
  Daniel Levine, Susi Lehtola, Hugh Burton, Evgeny Epifanovsky,
  Bang C. Huynh
 -----------------------------------------------------------------------
 Exchange:     0.5400 Hartree-Fock + 1.0000 M06-2X
 Correlation:  1.0000 M06-2X
 Using SG-3 standard quadrature grid
 using 16 threads for integral computing
 -------------------------------------------------------
 OpenMP Integral computing Module                
 Release: version 1.0, May 2013, Q-Chem Inc. Pittsburgh 
 -------------------------------------------------------
 A restricted SCF calculation will be
 performed using DIIS
 SCF converges when DIIS error is below 1.0e-05
 ---------------------------------------
  Cycle       Energy         DIIS error
 ---------------------------------------
    1    -938.5689016370      5.11e-02  
    2    -934.9309625456      6.70e-03  
    3    -934.7716188509      9.20e-03  
    4    -935.1628028952      1.03e-03  
    5    -935.1676974643      4.38e-04  
    6    -935.1688089279      9.75e-05  
    7    -935.1688681739      2.99e-05  
    8    -935.1688738400      8.68e-06  Convergence criterion met
 ---------------------------------------
 SCF time:   CPU 67.16s  wall 5.00s 
 SCF   energy in the final basis set =     -935.1688738400
 Total energy in the final basis set =     -935.1688738400
 Exchange:     0.5400 Hartree-Fock + 1.0000 M06-2X
 Correlation:  1.0000 M06-2X
 Using SG-3 standard quadrature grid
 
 SM12 calculation using Merz-Singh-Kollman charges
 Citation of the SM12 model:
 Marenich, A.V.; Cramer, C.J.; Truhlar, D.G.
 J. Chem. Theory Comput. 2013, 9, 609-612.
 iSolventCode=           1
 Solvent: water                                                           
 
  Building new vdw surfaces
         Merz-Kollman ESP Net Atomic Charges

     Atom                 Charge (a.u.)
  ----------------------------------------
      1 C                    -0.203391
      2 C                    -0.061733
      3 H                     0.166301
      4 C                    -0.303567
      5 H                     0.203984
      6 C                     0.430847
      7 C                    -0.294052
      8 H                     0.201723
      9 C                    -0.080269
     10 H                     0.172770
     11 S                     1.066922
     12 O                    -0.503892
     13 O                    -0.503097
     14 N                    -0.811109
     15 H                     0.373439
     16 H                     0.373570
     17 F                    -0.228444
  ----------------------------------------
  Sum of atomic charges =     0.000000

  Related Dipole Moment =     5.4561 (X  1.3021 Y  4.2667 Z -3.1415)


 Charges (in A.U.) from Merz-Kollman fitting 
 -----------------------------------------------
 Center     Atomic                  MZ       
 Number     Number                  Charge
 -----------------------------------------------
    1          6                   -0.203391
    2          6                   -0.061733
    3          1                    0.166301
    4          6                   -0.303567
    5          1                    0.203984
    6          6                    0.430847
    7          6                   -0.294052
    8          1                    0.201723
    9          6                   -0.080269
   10          1                    0.172770
   11         16                    1.066922
   12          8                   -0.503892
   13          8                   -0.503097
   14          7                   -0.811109
   15          1                    0.373439
   16          1                    0.373570
   17          9                   -0.228444
 -----------------------------------------------
 A restricted SCF calculation will be
 performed using Roothaan-Hall, DIIS
 SCF converges when DIIS error is below 1.0e-05
 ---------------------------------------
  Cycle       Energy         DIIS error
 ---------------------------------------
         Merz-Kollman ESP Net Atomic Charges

     Atom                 Charge (a.u.)
  ----------------------------------------
      1 C                    -0.193018
      2 C                    -0.075959
      3 H                     0.175330
      4 C                    -0.292109
      5 H                     0.218336
      6 C                     0.421106
      7 C                    -0.281924
      8 H                     0.215954
      9 C                    -0.096850
     10 H                     0.182596
     11 S                     1.115620
     12 O                    -0.562981
     13 O                    -0.561795
     14 N                    -0.806409
     15 H                     0.391920
     16 H                     0.391738
     17 F                    -0.241555
  ----------------------------------------
  Sum of atomic charges =     0.000000

  Related Dipole Moment =     6.3771 (X  1.5354 Y  5.0157 Z -3.6266)


 Charges (in A.U.) from Merz-Kollman fitting 
 -----------------------------------------------
 Center     Atomic                  MZ       
 Number     Number                  Charge
 -----------------------------------------------
    1          6                   -0.193018
    2          6                   -0.075959
    3          1                    0.175330
    4          6                   -0.292109
    5          1                    0.218336
    6          6                    0.421106
    7          6                   -0.281924
    8          1                    0.215954
    9          6                   -0.096850
   10          1                    0.182596
   11         16                    1.115620
   12          8                   -0.562981
   13          8                   -0.561795
   14          7                   -0.806409
   15          1                    0.391920
   16          1                    0.391738
   17          9                   -0.241555
 -----------------------------------------------
    1    -935.1688736053      5.01e-04  Roothaan Step
 ---------------------------------------
  Cycle       Energy         DIIS error
 ---------------------------------------
         Merz-Kollman ESP Net Atomic Charges

     Atom                 Charge (a.u.)
  ----------------------------------------
      1 C                    -0.184525
      2 C                    -0.079653
      3 H                     0.175608
      4 C                    -0.300115
      5 H                     0.224226
      6 C                     0.421950
      7 C                    -0.289078
      8 H                     0.221803
      9 C                    -0.102038
     10 H                     0.183318
     11 S                     1.068412
     12 O                    -0.536544
     13 O                    -0.535344
     14 N                    -0.809961
     15 H                     0.389561
     16 H                     0.389205
     17 F                    -0.236826
  ----------------------------------------
  Sum of atomic charges =     0.000000

  Related Dipole Moment =     6.2090 (X  1.4572 Y  4.8104 Z -3.6453)


 Charges (in A.U.) from Merz-Kollman fitting 
 -----------------------------------------------
 Center     Atomic                  MZ       
 Number     Number                  Charge
 -----------------------------------------------
    1          6                   -0.184525
    2          6                   -0.079653
    3          1                    0.175608
    4          6                   -0.300115
    5          1                    0.224226
    6          6                    0.421950
    7          6                   -0.289078
    8          1                    0.221803
    9          6                   -0.102038
   10          1                    0.183318
   11         16                    1.068412
   12          8                   -0.536544
   13          8                   -0.535344
   14          7                   -0.809961
   15          1                    0.389561
   16          1                    0.389205
   17          9                   -0.236826
 -----------------------------------------------
    1    -935.1643657099      3.63e-04  
         Merz-Kollman ESP Net Atomic Charges

     Atom                 Charge (a.u.)
  ----------------------------------------
      1 C                    -0.184315
      2 C                    -0.078892
      3 H                     0.175689
      4 C                    -0.298655
      5 H                     0.223523
      6 C                     0.422228
      7 C                    -0.287997
      8 H                     0.221170
      9 C                    -0.100998
     10 H                     0.183289
     11 S                     1.110673
     12 O                    -0.559731
     13 O                    -0.558427
     14 N                    -0.807603
     15 H                     0.390381
     16 H                     0.390024
     17 F                    -0.240360
  ----------------------------------------
  Sum of atomic charges =     0.000000

  Related Dipole Moment =     6.3572 (X  1.5122 Y  4.9655 Z -3.6703)


 Charges (in A.U.) from Merz-Kollman fitting 
 -----------------------------------------------
 Center     Atomic                  MZ       
 Number     Number                  Charge
 -----------------------------------------------
    1          6                   -0.184315
    2          6                   -0.078892
    3          1                    0.175689
    4          6                   -0.298655
    5          1                    0.223523
    6          6                    0.422228
    7          6                   -0.287997
    8          1                    0.221170
    9          6                   -0.100998
   10          1                    0.183289
   11         16                    1.110673
   12          8                   -0.559731
   13          8                   -0.558427
   14          7                   -0.807603
   15          1                    0.390381
   16          1                    0.390024
   17          9                   -0.240360
 -----------------------------------------------
    2    -935.1651024516      4.53e-04  
         Merz-Kollman ESP Net Atomic Charges

     Atom                 Charge (a.u.)
  ----------------------------------------
      1 C                    -0.187632
      2 C                    -0.078536
      3 H                     0.175809
      4 C                    -0.296871
      5 H                     0.223835
      6 C                     0.422107
      7 C                    -0.286209
      8 H                     0.221484
      9 C                    -0.100696
     10 H                     0.183422
     11 S                     1.103133
     12 O                    -0.557620
     13 O                    -0.556325
     14 N                    -0.806835
     15 H                     0.391012
     16 H                     0.390629
     17 F                    -0.240705
  ----------------------------------------
  Sum of atomic charges =     0.000000

  Related Dipole Moment =     6.3867 (X  1.5131 Y  4.9771 Z -3.7053)


 Charges (in A.U.) from Merz-Kollman fitting 
 -----------------------------------------------
 Center     Atomic                  MZ       
 Number     Number                  Charge
 -----------------------------------------------
    1          6                   -0.187632
    2          6                   -0.078536
    3          1                    0.175809
    4          6                   -0.296871
    5          1                    0.223835
    6          6                    0.422107
    7          6                   -0.286209
    8          1                    0.221484
    9          6                   -0.100696
   10          1                    0.183422
   11         16                    1.103133
   12          8                   -0.557620
   13          8                   -0.556325
   14          7                   -0.806835
   15          1                    0.391012
   16          1                    0.390629
   17          9                   -0.240705
 -----------------------------------------------
    3    -935.1647563817      3.84e-05  
         Merz-Kollman ESP Net Atomic Charges

     Atom                 Charge (a.u.)
  ----------------------------------------
      1 C                    -0.185037
      2 C                    -0.079054
      3 H                     0.175878
      4 C                    -0.297958
      5 H                     0.224327
      6 C                     0.421649
      7 C                    -0.287293
      8 H                     0.221985
      9 C                    -0.101241
     10 H                     0.183495
     11 S                     1.105729
     12 O                    -0.558747
     13 O                    -0.557435
     14 N                    -0.807465
     15 H                     0.390975
     16 H                     0.390588
     17 F                    -0.240397
  ----------------------------------------
  Sum of atomic charges =     0.000000

  Related Dipole Moment =     6.3851 (X  1.5134 Y  4.9770 Z -3.7025)


 Charges (in A.U.) from Merz-Kollman fitting 
 -----------------------------------------------
 Center     Atomic                  MZ       
 Number     Number                  Charge
 -----------------------------------------------
    1          6                   -0.185037
    2          6                   -0.079054
    3          1                    0.175878
    4          6                   -0.297958
    5          1                    0.224327
    6          6                    0.421649
    7          6                   -0.287293
    8          1                    0.221985
    9          6                   -0.101241
   10          1                    0.183495
   11         16                    1.105729
   12          8                   -0.558747
   13          8                   -0.557435
   14          7                   -0.807465
   15          1                    0.390975
   16          1                    0.390588
   17          9                   -0.240397
 -----------------------------------------------
    4    -935.1646470471      2.03e-05  
    5    -935.1646095318      4.64e-06  Convergence criterion met
 ---------------------------------------
 SCF time:   CPU 64.95s  wall 4.00s 
(0)  E-EN(g) gas-phase elect-nuc energy                 -935.168873840 a.u.
(1)  E-EN(liq) elect-nuc energy of solute               -935.164609532 a.u.
(2)  G-P(liq) polarization free energy of solvation           -18.9582 kcal/mol
(3)  G-ENP(liq) elect-nuc-pol free energy of system     -935.194821361 a.u.
(4)  G-CDS(liq) cavity-dispersion-solvent structure 
     free energy                                                3.4086 kcal/mol
(5)  G-P-CDS(liq) = G-P(liq) + G-CDS(liq) = (2) + (4)         -15.5496 kcal/mol
(6)  G-S(liq) free energy of system = (1) + (5)         -935.189389416 a.u.
(7)  DeltaE-EN(liq) elect-nuc reorganization
     energy of solute molecule (7) = (1) - (0)                  2.6759 kcal/mol
(8)  DeltaG-ENP(liq) elect-nuc-pol free energy
     of solvation (8) = (3) - (0)                             -16.2823 kcal/mol
(9)  DeltaG-S(liq) free energy of  solvation
     (9) = (6) - (0)                                          -12.8737 kcal/mol
 SCF   energy in the final basis set =     -935.1893894158
 Total energy in the final basis set =     -935.1893894158
 
 --------------------------------------------------------------
 
                    Orbital Energies (a.u.)
 --------------------------------------------------------------
 
 Alpha MOs
 -- Occupied --
-90.1758 -25.2969 -19.6585 -19.6584 -14.8056 -10.6650 -10.6067 -10.5935
-10.5935 -10.5828 -10.5828  -8.4897  -6.4119  -6.4115  -6.4105  -1.3926
 -1.2592  -1.1457  -1.0347  -1.0010  -0.8914  -0.8834  -0.7769  -0.7385
 -0.7074  -0.6536  -0.6399  -0.6189  -0.5986  -0.5926  -0.5856  -0.5445
 -0.5400  -0.5253  -0.5042  -0.5020  -0.4701  -0.4357  -0.4352  -0.4210
 -0.4050  -0.4010  -0.3845  -0.3400  -0.3267
 -- Virtual --
 -0.0175  -0.0092  -0.0013   0.0279   0.0321   0.0431   0.0522   0.0541
  0.0638   0.0786   0.0832   0.0835   0.0855   0.0953   0.1076   0.1084
  0.1172   0.1259   0.1309   0.1328   0.1422   0.1495   0.1577   0.1582
  0.1621   0.1718   0.1743   0.1837   0.1895   0.1902   0.1991   0.2117
  0.2129   0.2248   0.2276   0.2416   0.2483   0.2514   0.2542   0.2583
  0.2727   0.2771   0.2820   0.2920   0.2927   0.3089   0.3136   0.3230
  0.3252   0.3329   0.3376   0.3529   0.3580   0.3771   0.3932   0.4000
  0.4059   0.4128   0.4207   0.4447   0.4683   0.4764   0.5444   0.5647
  0.5667   0.6257   0.6651   0.6794   0.6888   0.6993   0.7120   0.7452
  0.7472   0.7558   0.7656   0.7731   0.8005   0.8196   0.8405   0.8815
  0.8991   0.9353   0.9563   0.9569   0.9889   0.9914   1.0152   1.0200
  1.0246   1.0511   1.0862   1.0931   1.1100   1.1153   1.1205   1.1265
  1.1537   1.1749   1.1875   1.2306   1.2535   1.2709   1.3000   1.3241
  1.3481   1.3598   1.3610   1.3684   1.3824   1.3916   1.3935   1.3996
  1.4787   1.4834   1.4856   1.5222   1.5416   1.6020   1.6770   1.6784
  1.6994   1.7426   1.7891   1.7922   1.7959   1.8021   1.8168   1.8451
  1.8545   1.8637   1.8748   1.9000   1.9243   1.9374   1.9709   1.9867
  2.0211   2.0215   2.0429   2.0656   2.1178   2.1517   2.1571   2.1606
  2.1754   2.1967   2.2312   2.2682   2.2742   2.2992   2.3266   2.3283
  2.3307   2.4454   2.4939   2.5528   2.5627   2.6484   2.6767   2.6864
  2.7332   2.7711   2.8358   2.8947   2.9006   2.9448   3.1545   3.2331
  3.4228   3.8825   4.0717   4.1885   4.2453   4.2535   4.2741   4.3019
  4.3964   4.4528   4.7262   5.9614
 --------------------------------------------------------------
 
          Ground-State Mulliken Net Atomic Charges

     Atom                 Charge (a.u.)
  ----------------------------------------
      1 C                    -0.992895
      2 C                    -0.131524
      3 H                     0.293932
      4 C                     0.373533
      5 H                     0.299882
      6 C                    -0.050065
      7 C                     0.373481
      8 H                     0.299653
      9 C                    -0.155594
     10 H                     0.293968
     11 S                     1.105314
     12 O                    -0.760399
     13 O                    -0.760093
     14 N                    -0.825338
     15 H                     0.505062
     16 H                     0.504793
     17 F                    -0.373709
  ----------------------------------------
  Sum of atomic charges =     0.000000

         Merz-Kollman ESP Net Atomic Charges

     Atom                 Charge (a.u.)
  ----------------------------------------
      1 C                    -0.185757
      2 C                    -0.078917
      3 H                     0.175846
      4 C                    -0.297926
      5 H                     0.224331
      6 C                     0.422046
      7 C                    -0.287263
      8 H                     0.221991
      9 C                    -0.101119
     10 H                     0.183465
     11 S                     1.106232
     12 O                    -0.558879
     13 O                    -0.557566
     14 N                    -0.807304
     15 H                     0.390881
     16 H                     0.390492
     17 F                    -0.240552
  ----------------------------------------
  Sum of atomic charges =     0.000000

  Related Dipole Moment =     6.3867 (X  1.5133 Y  4.9775 Z -3.7047)

 -----------------------------------------------------------------
                    Cartesian Multipole Moments
 -----------------------------------------------------------------
    Charge (ESU x 10^10)
                 0.0000
    Dipole Moment (Debye)
         X       1.4737      Y       4.8674      Z      -3.7400
       Tot       6.3128
    Quadrupole Moments (Debye-Ang)
        XX     -68.6395     XY      -5.6272     YY     -64.0159
        XZ       5.6229     YZ       5.2409     ZZ     -79.9073
    Octopole Moments (Debye-Ang^2)
       XXX     245.2102    XXY     -21.9090    XYY      72.6162
       YYY    -106.9139    XXZ      29.7127    XYZ       6.3142
       YYZ      74.0486    XZZ     101.2194    YZZ     -49.3784
       ZZZ     211.6061
    Hexadecapole Moments (Debye-Ang^3)
      XXXX    -974.0130   XXXY     129.6274   XXYY    -201.0623
      XYYY     173.3425   YYYY    -361.1911   XXXZ    -141.2874
      XXYZ      37.5728   XYYZ     -83.0030   YYYZ     239.8463
      XXZZ    -523.6290   XYZZ      53.2255   YYZZ    -456.1063
      XZZZ    -310.6650   YZZZ     258.0044   ZZZZ   -2559.7100
 -----------------------------------------------------------------
 Total job time:  11.63s(wall), 139.24s(cpu) 
 Thu May 26 10:29:18 2022

        *************************************************************
        *                                                           *
        *  Thank you very much for using Q-Chem.  Have a nice day.  *
        *                                                           *
        *************************************************************


