                  Welcome to Q-Chem
     A Quantum Leap Into The Future Of Chemistry


 Q-Chem 5.4 (devel), Q-Chem, Inc., Pleasanton, CA (2021)

 E. Epifanovsky,  A. T. B. Gilbert,  Xintian Feng,  Joonho Lee,  Yuezhi Mao,  
 N. Mardirossian,  P. Pokhilko,  A. White,  M. Wormit,  M. P. Coons,  
 A. L. Dempwolff,  Zhengting Gan,  D. Hait,  P. R. Horn,  L. D. Jacobson,  
 I. Kaliman,  J. Kussmann,  A. W. Lange,  Ka Un Lao,  D. S. Levine,  Jie Liu,  
 S. C. McKenzie,  A. F. Morrison,  K. Nanda,  F. Plasser,  D. R. Rehn,  
 M. L. Vidal,  Zhi-Qiang You,  Ying Zhu,  B. Alam,  B. Albrecht,  
 A. Aldossary,  E. Alguire,  J. H. Andersen,  D. Barton,  K. Begam,  A. Behn,  
 Y. A. Bernard,  E. J. Berquist,  H. Burton,  A. Carreras,  K. Carter-Fenk,  
 R. Chakraborty,  A. D. Chien,  K. D. Closser,  V. Cofer-Shabica,  
 S. Dasgupta,  Jia Deng,  M. de Wergifosse,  M. Diedenhofen,  Hainam Do,  
 S. Ehlert,  Po-Tung Fang,  S. Fatehi,  Qingguo Feng,  T. Friedhoff,  
 J. Gayvert,  Qinghui Ge,  G. Gidofalvi,  M. Goldey,  J. Gomes,  
 C. Gonzalez-Espinoza,  S. Gulania,  A. Gunina,  M. W. D. Hanson-Heine,  
 P. H. P. Harbach,  A. W. Hauser,  M. F. Herbst,  M. Hernandez Vera,  
 M. Hodecker,  Z. C. Holden,  S. Houck,  Xunkun Huang,  Kerwin Hui,  
 B. C. Huynh,  M. Ivanov,  Hyunjun Ji,  Hanjie Jiang,  B. Kaduk,  S. Kaehler,  
 K. Khistyaev,  Jaehoon Kim,  P. Klunzinger,  Z. Koczor-Benda,  
 Joong Hoon Koh,  D. Kosenkov,  L. Koulias,  T. Kowalczyk,  C. M. Krauter,  
 K. Kue,  A. Kunitsa,  T. Kus,  A. Landau,  K. V. Lawler,  D. Lefrancois,  
 S. Lehtola,  Rain Li,  Yi-Pei Li,  Jiashu Liang,  M. Liebenthal,  
 Hung-Hsuan Lin,  You-Sheng Lin,  Fenglai Liu,  Kuan-Yu Liu,  
 M. Loipersberger,  A. Luenser,  A. Manjanath,  P. Manohar,  E. Mansoor,  
 S. F. Manzer,  Shan-Ping Mao,  A. V. Marenich,  T. Markovich,  S. Mason,  
 S. A. Maurer,  P. F. McLaughlin,  M. F. S. J. Menger,  J.-M. Mewes,  
 S. A. Mewes,  P. Morgante,  J. W. Mullinax,  K. J. Oosterbaan,  G. Paran,  
 Alexander C. Paul,  Suranjan K. Paul,  F. Pavosevic,  Zheng Pei,  S. Prager,  
 E. I. Proynov,  E. Ramos,  B. Rana,  A. E. Rask,  A. Rettig,  R. M. Richard,  
 F. Rob,  E. Rossomme,  T. Scheele,  M. Scheurer,  M. Schneider,  
 N. Sergueev,  S. M. Sharada,  W. Skomorowski,  D. W. Small,  C. J. Stein,  
 Yu-Chuan Su,  E. J. Sundstrom,  Zhen Tao,  J. Thirman,  T. Tsuchimochi,  
 N. M. Tubman,  S. P. Veccham,  O. Vydrov,  J. Wenzel,  J. Witte,  A. Yamada,  
 Kun Yao,  S. Yeganeh,  S. R. Yost,  A. Zech,  Igor Ying Zhang,  Xing Zhang,  
 Yu Zhang,  D. Zuev,  A. Aspuru-Guzik,  A. T. Bell,  N. A. Besley,  
 K. B. Bravaya,  B. R. Brooks,  D. Casanova,  Jeng-Da Chai,  S. Coriani,  
 C. J. Cramer,  A. E. DePrince, III,  R. A. DiStasio Jr.,  A. Dreuw,  
 B. D. Dunietz,  T. R. Furlani,  W. A. Goddard III,  S. Grimme,  
 S. Hammes-Schiffer,  T. Head-Gordon,  W. J. Hehre,  Chao-Ping Hsu,  
 T.-C. Jagau,  Yousung Jung,  A. Klamt,  Jing Kong,  D. S. Lambrecht,  
 WanZhen Liang,  N. J. Mayhall,  C. W. McCurdy,  J. B. Neaton,  
 C. Ochsenfeld,  J. A. Parkhill,  R. Peverati,  V. A. Rassolov,  Yihan Shao,  
 L. V. Slipchenko,  T. Stauch,  R. P. Steele,  J. E. Subotnik,  
 A. J. W. Thom,  A. Tkatchenko,  D. G. Truhlar,  T. Van Voorhis,  
 T. A. Wesolowski,  K. B. Whaley,  H. L. Woodcock III,  P. M. Zimmerman,  
 S. Faraji,  P. M. W. Gill,  M. Head-Gordon,  J. M. Herbert,  A. I. Krylov

 Additional authors for Version 5.4.1: 
 S. Kotaru,  Shaozhi Li,  Xiangyuan Li,  F. Matz,  A. Molle,  Haisheng Ren,  
 Yingli Su,  Hung-Yi Tsai,  C. Utku,  Fang Wang

 Contributors to earlier versions of Q-Chem not listed above: 
 R. D. Adamson,  B. Austin,  R. Baer,  J. Baker,  G. J. O. Beran,  
 K. Brandhorst,  S. T. Brown,  E. F. C. Byrd,  A. K. Chakraborty,  
 G. K. L. Chan,  Chun-Min Chang,  Yunqing Chen,  C.-L. Cheng,  
 Siu Hung Chien,  D. M. Chipman,  D. L. Crittenden,  H. Dachsel,  
 R. J. Doerksen,  A. D. Dutoi,  R. G. Edgar,  J. Fosso-Tande,  
 L. Fusti-Molnar,  D. Ghosh,  A. Ghysels,  A. Golubeva-Zadorozhnaya,  
 J. Gonthier,  M. S. Gordon,  S. R. Gwaltney,  G. Hawkins,  J. E. Herr,  
 A. Heyden,  S. Hirata,  E. G. Hohenstein,  G. Kedziora,  F. J. Keil,  
 C. Kelley,  Jihan Kim,  R. A. King,  R. Z. Khaliullin,  P. P. Korambath,  
 W. Kurlancheek,  A. Laurent,  A. M. Lee,  M. S. Lee,  S. V. Levchenko,  
 Ching Yeh Lin,  D. Liotard,  E. Livshits,  R. C. Lochan,  I. Lotan,  
 L. A. Martinez-Martinez,  P. E. Maslen,  N. Nair,  D. P. O'Neill,  
 D. Neuhauser,  E. Neuscamman,  C. M. Oana,  R. Olivares-Amaya,  R. Olson,  
 T. M. Perrine,  B. Peters,  P. A. Pieniazek,  A. Prociuk,  Y. M. Rhee,  
 J. Ritchie,  M. A. Rohrdanz,  E. Rosta,  N. J. Russ,  H. F. Schaefer III,  
 M. W. Schmidt,  N. E. Schultz,  S. Sharma,  N. Shenvi,  C. D. Sherrill,  
 A. C. Simmonett,  A. Sodt,  T. Stein,  D. Stuck,  K. S. Thanthiriwatte,  
 V. Vanovschi,  L. Vogt,  Tao Wang,  A. Warshel,  M. A. Watson,  
 C. F. Williams,  Q. Wu,  X. Xu,  Jun Yang,  W. Zhang,  Yan Zhao

 Please cite Q-Chem as follows:
 Y. Shao et al., Mol. Phys. 113, 184-215 (2015)
 DOI: 10.1080/00268976.2014.952696

 Q-Chem 5.4.1 for Intel X86 EM64T Linux

 Parts of Q-Chem use Armadillo 9.800.1 (Horizon Scraper).
 http://arma.sourceforge.net/

 Q-Chem begins on Thu May 26 10:29:06 2022  

 Host: gadi-cpu-clx-2690.gadi.nci.org.au
0

     Scratch files written to /jobfs/41312716.gadi-pbs/qchem616721//
 Processing $rem in /apps/qchem/5.4.1/config/preferences:
 Processing $rem in /home/561/yj5695/.qchemrc:
 Symmetry turned off for PCM/SM12/SMD calculation
 Method-specific promolecule density matrix will be built for SM12 calculation

 Checking the input file for inconsistencies... 	...done.

--------------------------------------------------------------
User input:
--------------------------------------------------------------
$molecule
0  1
C -1.5241989223  0.6728585635 -0.7847417961
C -2.6555805516  0.9191622363 -1.5587109902
F -3.8649408424  1.0600402598 -1.0277938958
C -2.5578104436  1.0215785165 -2.9404028296
F -3.6473228496  1.2559536585 -3.66708282
C -1.3291632068  0.8803592047 -3.5648037399
C -0.1896146894  0.635076639 -2.8104062848
F  0.9909263642  0.5013922178 -3.4074579642
C -0.2998649332  0.5325909919 -1.4366421537
F  0.8072898327  0.3046104833 -0.7280265379
S -1.5487462218  0.5072078509  1.0010456448
O -2.8944456546  0.8242329637  1.4489443203
O -0.9573706751 -0.7884865679  1.3038069796
N -0.5512002754  1.6444298579  1.6190054174
H -0.8556486847  2.5991954557  1.4181263695
F -1.2402626032  0.9797225314 -4.8834969958
H  0.4317873568  1.4943501371  1.3849172764
$end

$rem
jobtype sp
exchange M062X
basis 6-31+G*
SMX_GAS_PHASE = TRUE
solvent_method sm12
$end

$smx
solvent water
charges mk
$end
--------------------------------------------------------------
 ----------------------------------------------------------------
             Standard Nuclear Orientation (Angstroms)
    I     Atom           X                Y                Z
 ----------------------------------------------------------------
    1      C      -1.5241989223     0.6728585635    -0.7847417961
    2      C      -2.6555805516     0.9191622363    -1.5587109902
    3      F      -3.8649408424     1.0600402598    -1.0277938958
    4      C      -2.5578104436     1.0215785165    -2.9404028296
    5      F      -3.6473228496     1.2559536585    -3.6670828200
    6      C      -1.3291632068     0.8803592047    -3.5648037399
    7      C      -0.1896146894     0.6350766390    -2.8104062848
    8      F       0.9909263642     0.5013922178    -3.4074579642
    9      C      -0.2998649332     0.5325909919    -1.4366421537
   10      F       0.8072898327     0.3046104833    -0.7280265379
   11      S      -1.5487462218     0.5072078509     1.0010456448
   12      O      -2.8944456546     0.8242329637     1.4489443203
   13      O      -0.9573706751    -0.7884865679     1.3038069796
   14      N      -0.5512002754     1.6444298579     1.6190054174
   15      H      -0.8556486847     2.5991954557     1.4181263695
   16      F      -1.2402626032     0.9797225314    -4.8834969958
   17      H       0.4317873568     1.4943501371     1.3849172764
 ----------------------------------------------------------------
 Nuclear Repulsion Energy =        1244.65641361 hartrees
 There are       61 alpha and       61 beta electrons
 Requested basis set is 6-31+G(d)
 There are 80 shells and 293 basis functions

 Total QAlloc Memory Limit   2000 MB
 Mega-Array Size       188 MB
 MEM_STATIC part       192 MB
 A cutoff of  1.0D-08 yielded   2482 shell pairs
 There are     35383 function pairs
 Smallest overlap matrix eigenvalue = 1.49E-06

 Q-Chem warning in module stvman/mkSTV.C, line 323:

 Overlap eigenvalue is smaller than square root of threshold
 Use THRESH >= 12 to get rid of this warning


 Scale SEOQF with 1.000000e-01/1.000000e-01/1.000000e-01

 Standard Electronic Orientation quadrupole field applied
 Nucleus-field energy     =    -0.0000000529 hartrees
 ================ Generating on-the-fly Promolecule Density  ================
Attempting to make child job directory: /jobfs/41312716.gadi-pbs/qchem616721//Frg1/
Attempting to make child job directory: /jobfs/41312716.gadi-pbs/qchem616721//Frg2/
Attempting to make child job directory: /jobfs/41312716.gadi-pbs/qchem616721//Frg3/
Attempting to make child job directory: /jobfs/41312716.gadi-pbs/qchem616721//Frg4/
Attempting to make child job directory: /jobfs/41312716.gadi-pbs/qchem616721//Frg5/
Attempting to make child job directory: /jobfs/41312716.gadi-pbs/qchem616721//Frg6/
Creating input file /jobfs/41312716.gadi-pbs/qchem616721/Frg1.input
using default PutDataFrgm: nothing
calling putenv with: QCSCRATCH=/jobfs/41312716.gadi-pbs/qchem616721/ 
Spawning Job For Fragment 0
Done Job For Fragment 0
calling putenv with: QCSCRATCH=/jobfs/41312716.gadi-pbs 
calling putenv with: QCTHREADS=16 
Creating input file /jobfs/41312716.gadi-pbs/qchem616721/Frg2.input
using default PutDataFrgm: nothing
calling putenv with: QCSCRATCH=/jobfs/41312716.gadi-pbs/qchem616721/ 
Spawning Job For Fragment 1
Done Job For Fragment 1
calling putenv with: QCSCRATCH=/jobfs/41312716.gadi-pbs 
calling putenv with: QCTHREADS=16 
Creating input file /jobfs/41312716.gadi-pbs/qchem616721/Frg3.input
using default PutDataFrgm: nothing
calling putenv with: QCSCRATCH=/jobfs/41312716.gadi-pbs/qchem616721/ 
Spawning Job For Fragment 2
Done Job For Fragment 2
calling putenv with: QCSCRATCH=/jobfs/41312716.gadi-pbs 
calling putenv with: QCTHREADS=16 
Creating input file /jobfs/41312716.gadi-pbs/qchem616721/Frg4.input
using default PutDataFrgm: nothing
calling putenv with: QCSCRATCH=/jobfs/41312716.gadi-pbs/qchem616721/ 
Spawning Job For Fragment 3
Done Job For Fragment 3
calling putenv with: QCSCRATCH=/jobfs/41312716.gadi-pbs 
calling putenv with: QCTHREADS=16 
Creating input file /jobfs/41312716.gadi-pbs/qchem616721/Frg5.input
using default PutDataFrgm: nothing
calling putenv with: QCSCRATCH=/jobfs/41312716.gadi-pbs/qchem616721/ 
Spawning Job For Fragment 4
Done Job For Fragment 4
calling putenv with: QCSCRATCH=/jobfs/41312716.gadi-pbs 
calling putenv with: QCTHREADS=16 
Creating input file /jobfs/41312716.gadi-pbs/qchem616721/Frg6.input
using default PutDataFrgm: nothing
calling putenv with: QCSCRATCH=/jobfs/41312716.gadi-pbs/qchem616721/ 
Spawning Job For Fragment 5
Done Job For Fragment 5
calling putenv with: QCSCRATCH=/jobfs/41312716.gadi-pbs 
calling putenv with: QCTHREADS=16 
 Time for running child jobs:  CPU 2.04 s  wall 2.70 s
 ============= Method Specific Promolecule Density Constructed =============
 Guess from superposition of atomic densities
 Warning:  Energy on first SCF cycle will be non-variational
 SAD guess density has 122.000000 electrons

 -----------------------------------------------------------------------
  General SCF calculation program by
  Eric Jon Sundstrom, Paul Horn, Yuezhi Mao, Dmitri Zuev, Alec White,
  David Stuck, Shaama M.S., Shane Yost, Joonho Lee, David Small,
  Daniel Levine, Susi Lehtola, Hugh Burton, Evgeny Epifanovsky,
  Bang C. Huynh
 -----------------------------------------------------------------------
 Exchange:     0.5400 Hartree-Fock + 1.0000 M06-2X
 Correlation:  1.0000 M06-2X
 Using SG-3 standard quadrature grid
 using 16 threads for integral computing
 -------------------------------------------------------
 OpenMP Integral computing Module                
 Release: version 1.0, May 2013, Q-Chem Inc. Pittsburgh 
 -------------------------------------------------------
 A restricted SCF calculation will be
 performed using DIIS
 SCF converges when DIIS error is below 1.0e-05
 ---------------------------------------
  Cycle       Energy         DIIS error
 ---------------------------------------
    1   -1336.2680753174      4.33e-02  
    2   -1331.6802202956      5.60e-03  
    3   -1331.4627491232      7.94e-03  
    4   -1331.9521313196      9.13e-04  
    5   -1331.9580896095      4.08e-04  
    6   -1331.9597287732      9.12e-05  
    7   -1331.9598008418      3.36e-05  
    8   -1331.9598109426      6.38e-06  Convergence criterion met
 ---------------------------------------
 SCF time:   CPU 120.43s  wall 8.00s 
 SCF   energy in the final basis set =    -1331.9598109426
 Total energy in the final basis set =    -1331.9598109426
 Exchange:     0.5400 Hartree-Fock + 1.0000 M06-2X
 Correlation:  1.0000 M06-2X
 Using SG-3 standard quadrature grid
 
 SM12 calculation using Merz-Singh-Kollman charges
 Citation of the SM12 model:
 Marenich, A.V.; Cramer, C.J.; Truhlar, D.G.
 J. Chem. Theory Comput. 2013, 9, 609-612.
 iSolventCode=           1
 Solvent: water                                                           
 
  Building new vdw surfaces
         Merz-Kollman ESP Net Atomic Charges

     Atom                 Charge (a.u.)
  ----------------------------------------
      1 C                    -0.386410
      2 C                     0.308897
      3 F                    -0.126998
      4 C                     0.092954
      5 F                    -0.119543
      6 C                     0.124990
      7 C                     0.225656
      8 F                    -0.141268
      9 C                     0.092640
     10 F                    -0.101251
     11 S                     1.094716
     12 O                    -0.469865
     13 O                    -0.455881
     14 N                    -0.849481
     15 H                     0.406544
     16 F                    -0.107311
     17 H                     0.411612
  ----------------------------------------
  Sum of atomic charges =     0.000000

  Related Dipole Moment =     4.8007 (X  2.5531 Y  3.5174 Z -2.0387)


 Charges (in A.U.) from Merz-Kollman fitting 
 -----------------------------------------------
 Center     Atomic                  MZ       
 Number     Number                  Charge
 -----------------------------------------------
    1          6                   -0.386410
    2          6                    0.308897
    3          9                   -0.126998
    4          6                    0.092954
    5          9                   -0.119543
    6          6                    0.124990
    7          6                    0.225656
    8          9                   -0.141268
    9          6                    0.092640
   10          9                   -0.101251
   11         16                    1.094716
   12          8                   -0.469865
   13          8                   -0.455881
   14          7                   -0.849481
   15          1                    0.406544
   16          9                   -0.107311
   17          1                    0.411612
 -----------------------------------------------
 A restricted SCF calculation will be
 performed using Roothaan-Hall, DIIS
 SCF converges when DIIS error is below 1.0e-05
 ---------------------------------------
  Cycle       Energy         DIIS error
 ---------------------------------------
         Merz-Kollman ESP Net Atomic Charges

     Atom                 Charge (a.u.)
  ----------------------------------------
      1 C                    -0.385297
      2 C                     0.317711
      3 F                    -0.143736
      4 C                     0.106445
      5 F                    -0.132483
      6 C                     0.146649
      7 C                     0.251044
      8 F                    -0.153517
      9 C                     0.105600
     10 F                    -0.107228
     11 S                     1.146893
     12 O                    -0.530226
     13 O                    -0.515789
     14 N                    -0.844944
     15 H                     0.428029
     16 F                    -0.119174
     17 H                     0.430023
  ----------------------------------------
  Sum of atomic charges =     0.000000

  Related Dipole Moment =     5.8437 (X  3.2777 Y  4.1221 Z -2.5325)


 Charges (in A.U.) from Merz-Kollman fitting 
 -----------------------------------------------
 Center     Atomic                  MZ       
 Number     Number                  Charge
 -----------------------------------------------
    1          6                   -0.385297
    2          6                    0.317711
    3          9                   -0.143736
    4          6                    0.106445
    5          9                   -0.132483
    6          6                    0.146649
    7          6                    0.251044
    8          9                   -0.153517
    9          6                    0.105600
   10          9                   -0.107228
   11         16                    1.146893
   12          8                   -0.530226
   13          8                   -0.515789
   14          7                   -0.844944
   15          1                    0.428029
   16          9                   -0.119174
   17          1                    0.430023
 -----------------------------------------------
    1   -1331.9598108709      4.04e-04  Roothaan Step
 ---------------------------------------
  Cycle       Energy         DIIS error
 ---------------------------------------
         Merz-Kollman ESP Net Atomic Charges

     Atom                 Charge (a.u.)
  ----------------------------------------
      1 C                    -0.384647
      2 C                     0.309178
      3 F                    -0.131049
      4 C                     0.098774
      5 F                    -0.121866
      6 C                     0.130168
      7 C                     0.238247
      8 F                    -0.140670
      9 C                     0.085007
     10 F                    -0.097345
     11 S                     1.099923
     12 O                    -0.500663
     13 O                    -0.483537
     14 N                    -0.849409
     15 H                     0.425447
     16 F                    -0.106731
     17 H                     0.429171
  ----------------------------------------
  Sum of atomic charges =     0.000000

  Related Dipole Moment =     5.5264 (X  3.0371 Y  3.9270 Z -2.4281)


 Charges (in A.U.) from Merz-Kollman fitting 
 -----------------------------------------------
 Center     Atomic                  MZ       
 Number     Number                  Charge
 -----------------------------------------------
    1          6                   -0.384647
    2          6                    0.309178
    3          9                   -0.131049
    4          6                    0.098774
    5          9                   -0.121866
    6          6                    0.130168
    7          6                    0.238247
    8          9                   -0.140670
    9          6                    0.085007
   10          9                   -0.097345
   11         16                    1.099923
   12          8                   -0.500663
   13          8                   -0.483537
   14          7                   -0.849409
   15          1                    0.425447
   16          9                   -0.106731
   17          1                    0.429171
 -----------------------------------------------
    1   -1331.9544670063      3.33e-04  
         Merz-Kollman ESP Net Atomic Charges

     Atom                 Charge (a.u.)
  ----------------------------------------
      1 C                    -0.380639
      2 C                     0.312756
      3 F                    -0.137966
      4 C                     0.101841
      5 F                    -0.127481
      6 C                     0.138143
      7 C                     0.244641
      8 F                    -0.147295
      9 C                     0.094101
     10 F                    -0.102420
     11 S                     1.141680
     12 O                    -0.524979
     13 O                    -0.508791
     14 N                    -0.846448
     15 H                     0.426569
     16 F                    -0.113078
     17 H                     0.429367
  ----------------------------------------
  Sum of atomic charges =     0.000000

  Related Dipole Moment =     5.7391 (X  3.1995 Y  4.0648 Z -2.4855)


 Charges (in A.U.) from Merz-Kollman fitting 
 -----------------------------------------------
 Center     Atomic                  MZ       
 Number     Number                  Charge
 -----------------------------------------------
    1          6                   -0.380639
    2          6                    0.312756
    3          9                   -0.137966
    4          6                    0.101841
    5          9                   -0.127481
    6          6                    0.138143
    7          6                    0.244641
    8          9                   -0.147295
    9          6                    0.094101
   10          9                   -0.102420
   11         16                    1.141680
   12          8                   -0.524979
   13          8                   -0.508791
   14          7                   -0.846448
   15          1                    0.426569
   16          9                   -0.113078
   17          1                    0.429367
 -----------------------------------------------
    2   -1331.9562560131      4.28e-04  
         Merz-Kollman ESP Net Atomic Charges

     Atom                 Charge (a.u.)
  ----------------------------------------
      1 C                    -0.383767
      2 C                     0.312723
      3 F                    -0.138048
      4 C                     0.103500
      5 F                    -0.128048
      6 C                     0.139816
      7 C                     0.246724
      8 F                    -0.147742
      9 C                     0.094466
     10 F                    -0.102345
     11 S                     1.133818
     12 O                    -0.522683
     13 O                    -0.506522
     14 N                    -0.845422
     15 H                     0.427119
     16 F                    -0.113562
     17 H                     0.429972
  ----------------------------------------
  Sum of atomic charges =     0.000000

  Related Dipole Moment =     5.7661 (X  3.2143 Y  4.0706 Z -2.5192)


 Charges (in A.U.) from Merz-Kollman fitting 
 -----------------------------------------------
 Center     Atomic                  MZ       
 Number     Number                  Charge
 -----------------------------------------------
    1          6                   -0.383767
    2          6                    0.312723
    3          9                   -0.138048
    4          6                    0.103500
    5          9                   -0.128048
    6          6                    0.139816
    7          6                    0.246724
    8          9                   -0.147742
    9          6                    0.094466
   10          9                   -0.102345
   11         16                    1.133818
   12          8                   -0.522683
   13          8                   -0.506522
   14          7                   -0.845422
   15          1                    0.427119
   16          9                   -0.113562
   17          1                    0.429972
 -----------------------------------------------
    3   -1331.9558424776      3.15e-05  
         Merz-Kollman ESP Net Atomic Charges

     Atom                 Charge (a.u.)
  ----------------------------------------
      1 C                    -0.381776
      2 C                     0.312420
      3 F                    -0.137832
      4 C                     0.102829
      5 F                    -0.127689
      6 C                     0.138736
      7 C                     0.245859
      8 F                    -0.147321
      9 C                     0.094084
     10 F                    -0.102324
     11 S                     1.136515
     12 O                    -0.523906
     13 O                    -0.507619
     14 N                    -0.846217
     15 H                     0.427224
     16 F                    -0.113078
     17 H                     0.430093
  ----------------------------------------
  Sum of atomic charges =     0.000000

  Related Dipole Moment =     5.7649 (X  3.2129 Y  4.0726 Z -2.5149)


 Charges (in A.U.) from Merz-Kollman fitting 
 -----------------------------------------------
 Center     Atomic                  MZ       
 Number     Number                  Charge
 -----------------------------------------------
    1          6                   -0.381776
    2          6                    0.312420
    3          9                   -0.137832
    4          6                    0.102829
    5          9                   -0.127689
    6          6                    0.138736
    7          6                    0.245859
    8          9                   -0.147321
    9          6                    0.094084
   10          9                   -0.102324
   11         16                    1.136515
   12          8                   -0.523906
   13          8                   -0.507619
   14          7                   -0.846217
   15          1                    0.427224
   16          9                   -0.113078
   17          1                    0.430093
 -----------------------------------------------
    4   -1331.9557602013      1.53e-05  
    5   -1331.9557380298      4.70e-06  Convergence criterion met
 ---------------------------------------
 SCF time:   CPU 113.46s  wall 8.00s 
(0)  E-EN(g) gas-phase elect-nuc energy                -1331.959810943 a.u.
(1)  E-EN(liq) elect-nuc energy of solute              -1331.955738030 a.u.
(2)  G-P(liq) polarization free energy of solvation           -16.4298 kcal/mol
(3)  G-ENP(liq) elect-nuc-pol free energy of system    -1331.981920540 a.u.
(4)  G-CDS(liq) cavity-dispersion-solvent structure 
     free energy                                                6.0356 kcal/mol
(5)  G-P-CDS(liq) = G-P(liq) + G-CDS(liq) = (2) + (4)         -10.3942 kcal/mol
(6)  G-S(liq) free energy of system = (1) + (5)        -1331.972302187 a.u.
(7)  DeltaE-EN(liq) elect-nuc reorganization
     energy of solute molecule (7) = (1) - (0)                  2.5558 kcal/mol
(8)  DeltaG-ENP(liq) elect-nuc-pol free energy
     of solvation (8) = (3) - (0)                             -13.8740 kcal/mol
(9)  DeltaG-S(liq) free energy of  solvation
     (9) = (6) - (0)                                           -7.8384 kcal/mol
 SCF   energy in the final basis set =    -1331.9723021875
 Total energy in the final basis set =    -1331.9723021875
 
 --------------------------------------------------------------
 
                    Orbital Energies (a.u.)
 --------------------------------------------------------------
 
 Alpha MOs
 -- Occupied --
-90.1960 -25.3293 -25.3287 -25.3243 -25.3232 -25.3207 -19.6696 -19.6683
-14.8158 -10.7038 -10.7027 -10.7015 -10.6931 -10.6918 -10.6377  -8.5082
 -6.4304  -6.4299  -6.4297  -1.4376  -1.4313  -1.4257  -1.4161  -1.4116
 -1.2747  -1.1596  -1.0498  -1.0404  -0.9286  -0.9114  -0.8170  -0.7865
 -0.7557  -0.7132  -0.7127  -0.6950  -0.6575  -0.6566  -0.6479  -0.6451
 -0.6386  -0.6254  -0.6201  -0.6118  -0.5991  -0.5921  -0.5872  -0.5680
 -0.5640  -0.5511  -0.5276  -0.5250  -0.4903  -0.4667  -0.4474  -0.4321
 -0.4150  -0.4116  -0.3994  -0.3484  -0.3371
 -- Virtual --
 -0.0347  -0.0177  -0.0036   0.0091   0.0324   0.0472   0.0494   0.0608
  0.0659   0.0730   0.0742   0.0829   0.0845   0.0945   0.0971   0.1027
  0.1131   0.1145   0.1264   0.1296   0.1360   0.1419   0.1446   0.1533
  0.1553   0.1626   0.1703   0.1784   0.1806   0.1893   0.1932   0.1984
  0.2017   0.2091   0.2122   0.2144   0.2215   0.2380   0.2430   0.2446
  0.2571   0.2642   0.2677   0.2871   0.2915   0.2956   0.2983   0.3086
  0.3119   0.3223   0.3284   0.3369   0.3395   0.3481   0.3529   0.3614
  0.3628   0.3685   0.3858   0.3921   0.3968   0.4037   0.4118   0.4152
  0.4171   0.4299   0.4352   0.4399   0.4525   0.4568   0.4660   0.4767
  0.4950   0.5083   0.5473   0.5500   0.5563   0.5659   0.5791   0.6079
  0.6175   0.6474   0.6718   0.6857   0.6943   0.7042   0.7188   0.7230
  0.7520   0.7682   0.7866   0.8035   0.8309   0.8768   0.9204   0.9363
  0.9756   0.9801   1.0019   1.0129   1.0416   1.0490   1.0673   1.0862
  1.1204   1.1263   1.1436   1.1636   1.1731   1.2033   1.2147   1.2234
  1.2394   1.2689   1.2822   1.2842   1.2942   1.3073   1.3213   1.3267
  1.3438   1.3523   1.3723   1.3727   1.3843   1.4092   1.4193   1.4591
  1.4817   1.5130   1.5924   1.6400   1.6448   1.6529   1.6689   1.6738
  1.6808   1.6924   1.7103   1.7155   1.7211   1.7343   1.7425   1.7519
  1.7580   1.7730   1.7820   1.7892   1.8037   1.8072   1.8108   1.8126
  1.8132   1.8260   1.8364   1.8415   1.8509   1.8571   1.8598   1.8738
  1.8792   1.8861   1.8882   1.9111   1.9178   1.9227   1.9385   1.9445
  1.9646   1.9880   1.9994   2.0233   2.0460   2.0771   2.1049   2.1176
  2.1552   2.1586   2.1719   2.1772   2.2039   2.2277   2.2611   2.2744
  2.2835   2.2922   2.3267   2.3510   2.3569   2.3686   2.3753   2.3988
  2.4047   2.4235   2.4572   2.4750   2.4971   2.5186   2.5850   2.5933
  2.6405   2.6439   2.7554   2.7588   2.8406   2.8950   2.9561   3.0226
  3.0517   3.0894   3.1844   3.2081   3.2655   3.3410   3.3690   3.4057
  3.5840   3.8944   4.0468   4.2067   4.2576   4.2713   4.3010   4.3367
  4.4876   4.5289   4.8878   5.3124   5.8943   6.4563   6.9603   7.9354
 --------------------------------------------------------------
 
          Ground-State Mulliken Net Atomic Charges

     Atom                 Charge (a.u.)
  ----------------------------------------
      1 C                    -0.644849
      2 C                    -0.628733
      3 F                    -0.346381
      4 C                     0.664602
      5 F                    -0.354214
      6 C                     0.707967
      7 C                     0.850694
      8 F                    -0.350840
      9 C                     0.904625
     10 F                    -0.337023
     11 S                     1.120421
     12 O                    -0.739182
     13 O                    -0.681780
     14 N                    -0.854070
     15 H                     0.522891
     16 F                    -0.344167
     17 H                     0.510040
  ----------------------------------------
  Sum of atomic charges =     0.000000

         Merz-Kollman ESP Net Atomic Charges

     Atom                 Charge (a.u.)
  ----------------------------------------
      1 C                    -0.382319
      2 C                     0.312456
      3 F                    -0.137835
      4 C                     0.102930
      5 F                    -0.127752
      6 C                     0.139001
      7 C                     0.245977
      8 F                    -0.147382
      9 C                     0.094060
     10 F                    -0.102297
     11 S                     1.136770
     12 O                    -0.523912
     13 O                    -0.507651
     14 N                    -0.846028
     15 H                     0.427135
     16 F                    -0.113169
     17 H                     0.430014
  ----------------------------------------
  Sum of atomic charges =     0.000000

  Related Dipole Moment =     5.7649 (X  3.2129 Y  4.0726 Z -2.5151)

 -----------------------------------------------------------------
                    Cartesian Multipole Moments
 -----------------------------------------------------------------
    Charge (ESU x 10^10)
                 0.0000
    Dipole Moment (Debye)
         X       3.2095      Y       3.9618      Z      -2.5451
       Tot       5.6986
    Quadrupole Moments (Debye-Ang)
        XX    -104.2786     XY       2.0943     YY     -80.3990
        XZ       8.0105     YZ       4.5148     ZZ     -97.0113
    Octopole Moments (Debye-Ang^2)
       XXX     442.5377    XXY     -80.5754    XYY     124.6749
       YYY    -163.0857    XXZ      96.3463    XYZ      -1.1969
       YYZ     103.9632    XZZ     143.8657    YZZ     -69.4143
       ZZZ     321.8188
    Hexadecapole Moments (Debye-Ang^3)
      XXXX   -2349.4912   XXXY     410.7846   XXYY    -442.9372
      XYYY     311.9225   YYYY    -432.6266   XXXZ    -426.6965
      XXYZ     106.1134   XYYZ    -142.2316   YYYZ     304.3761
      XXZZ    -939.3498   XYZZ     138.7333   YYZZ    -576.8222
      XZZZ    -452.7776   YZZZ     318.5102   ZZZZ   -3235.5873
 -----------------------------------------------------------------
 Total job time:  19.02s(wall), 241.66s(cpu) 
 Thu May 26 10:29:25 2022

        *************************************************************
        *                                                           *
        *  Thank you very much for using Q-Chem.  Have a nice day.  *
        *                                                           *
        *************************************************************


