
                                 *****************
                                 * O   R   C   A *
                                 *****************

                                            #,                                       
                                            ###                                      
                                            ####                                     
                                            #####                                    
                                            ######                                   
                                           ########,                                 
                                     ,,################,,,,,                         
                               ,,#################################,,                 
                          ,,##########################################,,             
                       ,#########################################, ''#####,          
                    ,#############################################,,   '####,        
                  ,##################################################,,,,####,       
                ,###########''''           ''''###############################       
              ,#####''   ,,,,##########,,,,          '''####'''          '####       
            ,##' ,,,,###########################,,,                        '##       
           ' ,,###''''                  '''############,,,                           
         ,,##''                                '''############,,,,        ,,,,,,###''
      ,#''                                            '''#######################'''  
     '                                                          ''''####''''         
             ,#######,   #######,   ,#######,      ##                                
            ,#'     '#,  ##    ##  ,#'     '#,    #''#        ######   ,####,        
            ##       ##  ##   ,#'  ##            #'  '#       #        #'  '#        
            ##       ##  #######   ##           ,######,      #####,   #    #        
            '#,     ,#'  ##    ##  '#,     ,#' ,#      #,         ##   #,  ,#        
             '#######'   ##     ##  '#######'  #'      '#     #####' # '####'        



                  #######################################################
                  #                        -***-                        #
                  #          Department of theory and spectroscopy      #
                  #    Directorship and core code : Frank Neese         #
                  #        Max Planck Institute fuer Kohlenforschung    #
                  #                Kaiser Wilhelm Platz 1               #
                  #                 D-45470 Muelheim/Ruhr               #
                  #                      Germany                        #
                  #                                                     #
                  #                  All rights reserved                #
                  #                        -***-                        #
                  #######################################################


                         Program Version 5.0.3 -  RELEASE  -


 With contributions from (in alphabetic order):
   Daniel Aravena         : Magnetic Suceptibility
   Michael Atanasov       : Ab Initio Ligand Field Theory (pilot matlab implementation)
   Alexander A. Auer      : GIAO ZORA, VPT2 properties, NMR spectrum
   Ute Becker             : Parallelization
   Giovanni Bistoni       : ED, misc. LED, open-shell LED, HFLD
   Martin Brehm           : Molecular dynamics
   Dmytro Bykov           : SCF Hessian
   Vijay G. Chilkuri      : MRCI spin determinant printing, contributions to CSF-ICE
   Dipayan Datta          : RHF DLPNO-CCSD density
   Achintya Kumar Dutta   : EOM-CC, STEOM-CC
   Dmitry Ganyushin       : Spin-Orbit,Spin-Spin,Magnetic field MRCI
   Miquel Garcia          : C-PCM and meta-GGA Hessian, CC/C-PCM, Gaussian charge scheme
   Yang Guo               : DLPNO-NEVPT2, F12-NEVPT2, CIM, IAO-localization
   Andreas Hansen         : Spin unrestricted coupled pair/coupled cluster methods
   Benjamin Helmich-Paris : MC-RPA, TRAH-SCF, COSX integrals
   Lee Huntington         : MR-EOM, pCC
   Robert Izsak           : Overlap fitted RIJCOSX, COSX-SCS-MP3, EOM
   Marcus Kettner         : VPT2
   Christian Kollmar      : KDIIS, OOCD, Brueckner-CCSD(T), CCSD density, CASPT2, CASPT2-K
   Simone Kossmann        : Meta GGA functionals, TD-DFT gradient, OOMP2, MP2 Hessian
   Martin Krupicka        : Initial AUTO-CI
   Lucas Lang             : DCDCAS
   Marvin Lechner         : AUTO-CI (C++ implementation), FIC-MRCC
   Dagmar Lenk            : GEPOL surface, SMD
   Dimitrios Liakos       : Extrapolation schemes; Compound Job, initial MDCI parallelization
   Dimitrios Manganas     : Further ROCIS development; embedding schemes
   Dimitrios Pantazis     : SARC Basis sets
   Anastasios Papadopoulos: AUTO-CI, single reference methods and gradients
   Taras Petrenko         : DFT Hessian,TD-DFT gradient, ASA, ECA, R-Raman, ABS, FL, XAS/XES, NRVS
   Peter Pinski           : DLPNO-MP2, DLPNO-MP2 Gradient
   Christoph Reimann      : Effective Core Potentials
   Marius Retegan         : Local ZFS, SOC
   Christoph Riplinger    : Optimizer, TS searches, QM/MM, DLPNO-CCSD(T), (RO)-DLPNO pert. Triples
   Tobias Risthaus        : Range-separated hybrids, TD-DFT gradient, RPA, STAB
   Michael Roemelt        : Original ROCIS implementation
   Masaaki Saitow         : Open-shell DLPNO-CCSD energy and density
   Barbara Sandhoefer     : DKH picture change effects
   Avijit Sen             : IP-ROCIS
   Kantharuban Sivalingam : CASSCF convergence, NEVPT2, FIC-MRCI
   Bernardo de Souza      : ESD, SOC TD-DFT
   Georgi Stoychev        : AutoAux, RI-MP2 NMR, DLPNO-MP2 response
   Willem Van den Heuvel  : Paramagnetic NMR
   Boris Wezisla          : Elementary symmetry handling
   Frank Wennmohs         : Technical directorship


 We gratefully acknowledge several colleagues who have allowed us to
 interface, adapt or use parts of their codes:
   Stefan Grimme, W. Hujo, H. Kruse, P. Pracht,  : VdW corrections, initial TS optimization,
                  C. Bannwarth, S. Ehlert          DFT functionals, gCP, sTDA/sTD-DF
   Ed Valeev, F. Pavosevic, A. Kumar             : LibInt (2-el integral package), F12 methods
   Garnet Chan, S. Sharma, J. Yang, R. Olivares  : DMRG
   Ulf Ekstrom                                   : XCFun DFT Library
   Mihaly Kallay                                 : mrcc  (arbitrary order and MRCC methods)
   Jiri Pittner, Ondrej Demel                    : Mk-CCSD
   Frank Weinhold                                : gennbo (NPA and NBO analysis)
   Christopher J. Cramer and Donald G. Truhlar   : smd solvation model
   Lars Goerigk                                  : TD-DFT with DH, B97 family of functionals
   V. Asgeirsson, H. Jonsson                     : NEB implementation
   FAccTs GmbH                                   : IRC, NEB, NEB-TS, DLPNO-Multilevel, CI-OPT
                                                   MM, QMMM, 2- and 3-layer-ONIOM, Crystal-QMMM,
                                                   LR-CPCM, SF, NACMEs, symmetry and pop. for TD-DFT,
                                                   nearIR, NL-DFT gradient (VV10), updates on ESD,
                                                   ML-optimized integration grids
   S Lehtola, MJT Oliveira, MAL Marques          : LibXC Library
   Liviu Ungur et al                             : ANISO software


 Your calculation uses the libint2 library for the computation of 2-el integrals
 For citations please refer to: http://libint.valeyev.net

 Your ORCA version has been built with support for libXC version: 5.1.0
 For citations please refer to: https://tddft.org/programs/libxc/

 This ORCA versions uses:
   CBLAS   interface :  Fast vector & matrix operations
   LAPACKE interface :  Fast linear algebra routines
   SCALAPACK package :  Parallel linear algebra routines
   Shared memory     :  Shared parallel matrices
   BLAS/LAPACK       :  OpenBLAS 0.3.15  USE64BITINT DYNAMIC_ARCH NO_AFFINITY SkylakeX SINGLE_THREADED
        Core in use  :  SkylakeX
   Copyright (c) 2011-2014, The OpenBLAS Project


Your calculation utilizes the atom-pairwise dispersion correction
with the Becke-Johnson damping scheme (D3BJ)
Cite in your paper:
S.Grimme, S.Ehrlich, L.Goerigk, J Comput Chem, (2011), 32, 1456–1465 
S.Grimme, J.Antony, S.Ehrlich and H.Krieg, J.Chem.Phys., 132, (2010), 154104 
   

================================================================================

----- Orbital basis set information -----
Your calculation utilizes the basis: aug-cc-pVTZ 
    H, B-Ne : Obtained from the ccRepo (grant-hill.group.shef.ac.uk/ccrepo) Feb. 2017
              R. A. Kendall, T. H. Dunning, Jr., R. J. Harrison, J. Chem. Phys. 96, 6796 (1992)
         He : Obtained from the ccRepo (grant-hill.group.shef.ac.uk/ccrepo) Feb. 2017
              D. E. Woon, T. H. Dunning, Jr., J. Chem. Phys. 100, 2975 (1994)
  Li-Be, Na : Obtained from the ccRepo (grant-hill.group.shef.ac.uk/ccrepo) Feb. 2017
              B. P. Prascher, D. E. Woon, K. A. Peterson, T. H. Dunning, Jr., A. K. Wilson, Theor. Chem. Acc. 128, 69 (2011)
         Mg : Obtained from the Peterson Research Group Website (tyr0.chem.wsu.edu/~kipeters) Feb. 2017
              B. P. Prascher, D. E. Woon, K. A. Peterson, T. H. Dunning, Jr., A. K. Wilson, Theor. Chem. Acc. 128, 69 (2011)
      Al-Ar : Obtained from the ccRepo (grant-hill.group.shef.ac.uk/ccrepo) Feb. 2017
              D. E. Woon, T. H. Dunning, Jr., J. Chem. Phys. 98, 1358 (1993)
      Sc-Zn : Obtained from the ccRepo (grant-hill.group.shef.ac.uk/ccrepo) Feb. 2017
              N. B. Balabanov, K. A. Peterson, J. Chem. Phys. 123, 064107 (2005)
              N. B. Balabanov, K. A. Peterson, J. Chem. Phys. 125, 074110 (2006)
      Ga-Kr : Obtained from the ccRepo (grant-hill.group.shef.ac.uk/ccrepo) Feb. 2017
              A. K. Wilson, D. E. Woon, K. A. Peterson, T. H. Dunning, Jr., J. Chem. Phys. 110, 7667 (1999)
     Ag, Au : Obtained from the Peterson Research Group Website (tyr0.chem.wsu.edu/~kipeters) Feb. 2017
              K. A. Peterson, C. Puzzarini, Theor. Chem. Acc. 114, 283 (2005)

----- AuxJ basis set information -----
Your calculation utilizes the auxiliary basis: def2/J
   F. Weigend, Phys. Chem. Chem. Phys. 8, 1057 (2006).

----- AuxC basis set information -----
Your calculation utilizes the auxiliary basis: aug-cc-pVTZ/C 
  H-He, B-F, Al-Ar, Ga-Kr : Obtained from the EMSL Basis Set Exchange (bse.pnl.gov) Feb. 2017
                            F. Weigend, A. Kohn, C. Hattig, J. Chem. Phys. 116, 3175 (2002)
                   Be, Mg : Obtained from the TURBOMOLE 7.0 basis set library
                            C. Haettig, Phys. Chem. Chem. Phys. 7, 59 (2005)
                       Ne : Obtained from the EMSL Basis Set Exchange (bse.pnl.gov) Feb. 2017
                            C. Haettig, Phys. Chem. Chem. Phys. 7, 59 (2005)
                            F. Weigend, A. Kohn, C. Hattig, J. Chem. Phys. 116, 3175 (2002)
                    Sc-Zn : Obtained from the EMSL Basis Set Exchange (bse.pnl.gov) Feb. 2017
                            J. G. Hill, J. A. Platts, J. Chem. Phys. 128, 044104 (2008)

================================================================================
                                        WARNINGS
                       Please study these warnings very carefully!
================================================================================


WARNING: No MP2 level density has been requested!
         To caclulate MP2 level properties use
         %mp2 Density relaxed end
         or
         %mp2 Density unrelaxed end
         Otherwise for double-hybrid DFT only the energy is correct!

WARNING: There are different parametrizations of Gershom Martin's DSD-DFs
         for use with and without D3(BJ)!
         You are using the D3(BJ) parametrized version,
         consistent with the GMTKN55 benchmark (L. Goerigk et al., PCCP 2017, 19, 32184)

WARNING: The frozen-core approximation is turned on by default for 
         the MP2 part of double-hybrid DFT.

INFO   : the flag for use of the SHARK integral package has been found!

================================================================================
                                       INPUT FILE
================================================================================
NAME = A.1.avtz.com
|  1> !PAL8
|  2> !RI-DSD-PBEP86 D3BJ aug-cc-pVTZ aug-cc-pVTZ/C TightSCF
|  3> %maxcore 5000
|  4> 
|  5> * xyz -1 1
|  6> C -1.345161564  0.7498587575 -0.9312485696
|  7> C -2.5292929964  0.8888147771 -1.651520572
|  8> H -3.4663212047  0.9412018551 -1.1037201778
|  9> C -2.4919021744  0.9842378025 -3.0437989946
| 10> H -3.4173849179  1.0998643444 -3.6039381437
| 11> C -1.2715120688  0.939202932 -3.7175104963
| 12> H -1.2421230759  1.0153151097 -4.8019826851
| 13> C -0.0857983677  0.8047835666 -2.9906343026
| 14> H  0.8690203062  0.7772511475 -3.5111537185
| 15> C -0.1221227126  0.711165243 -1.6012446257
| 16> H  0.7879373322  0.6157615426 -1.0150904402
| 17> S -1.3821086394  0.5241456763  0.8785241699
| 18> O -0.1709994275  1.2422447389  1.3193047839
| 19> O -2.6903208801  1.1249989421  1.2483779621
| 20> N -1.2521358907 -1.0095256394  1.168422721
| 21> H -2.1956327184 -1.3956827958  1.0928010893
| 22> *
| 23> 
| 24> 
| 25> 
| 26>                          ****END OF INPUT****
================================================================================

                       ****************************
                       * Single Point Calculation *
                       ****************************

---------------------------------
CARTESIAN COORDINATES (ANGSTROEM)
---------------------------------
  C     -1.345162    0.749859   -0.931249
  C     -2.529293    0.888815   -1.651521
  H     -3.466321    0.941202   -1.103720
  C     -2.491902    0.984238   -3.043799
  H     -3.417385    1.099864   -3.603938
  C     -1.271512    0.939203   -3.717510
  H     -1.242123    1.015315   -4.801983
  C     -0.085798    0.804784   -2.990634
  H      0.869020    0.777251   -3.511154
  C     -0.122123    0.711165   -1.601245
  H      0.787937    0.615762   -1.015090
  S     -1.382109    0.524146    0.878524
  O     -0.170999    1.242245    1.319305
  O     -2.690321    1.124999    1.248378
  N     -1.252136   -1.009526    1.168423
  H     -2.195633   -1.395683    1.092801

----------------------------
CARTESIAN COORDINATES (A.U.)
----------------------------
  NO LB      ZA    FRAG     MASS         X           Y           Z
   0 C     6.0000    0    12.011   -2.541987    1.417028   -1.759805
   1 C     6.0000    0    12.011   -4.779671    1.679617   -3.120922
   2 H     1.0000    0     1.008   -6.550398    1.778614   -2.085729
   3 C     6.0000    0    12.011   -4.709013    1.859940   -5.751947
   4 H     1.0000    0     1.008   -6.457922    2.078442   -6.810456
   5 C     6.0000    0    12.011   -2.402810    1.774836   -7.025077
   6 H     1.0000    0     1.008   -2.347272    1.918667   -9.074432
   7 C     6.0000    0    12.011   -0.162135    1.520821   -5.651480
   8 H     1.0000    0     1.008    1.642210    1.468792   -6.635119
   9 C     6.0000    0    12.011   -0.230778    1.343908   -3.025914
  10 H     1.0000    0     1.008    1.488986    1.163621   -1.918243
  11 S    16.0000    0    32.060   -2.611807    0.990492    1.660170
  12 O     8.0000    0    15.999   -0.323142    2.347502    2.493125
  13 O     8.0000    0    15.999   -5.083970    2.125940    2.359092
  14 N     7.0000    0    14.007   -2.366194   -1.907727    2.207999
  15 H     1.0000    0     1.008   -4.149145   -2.637458    2.065095

--------------------------------
INTERNAL COORDINATES (ANGSTROEM)
--------------------------------
 C      0   0   0     0.000000000000     0.00000000     0.00000000
 C      1   0   0     1.392934952545     0.00000000     0.00000000
 H      2   1   0     1.086669931937   118.50096419     0.00000000
 C      2   1   3     1.396045426691   119.98308864   178.73031622
 H      4   2   1     1.087953892434   119.86427432   180.43619552
 C      4   2   1     1.394728409738   120.19645073     0.08068293
 H      6   4   2     1.087536990074   120.20304375   180.10947217
 C      6   4   2     1.397259656520   119.62668849   359.67948133
 H      8   6   4     1.087831419136   119.89114882   180.49181600
 C      8   6   4     1.393013827219   120.21189024     0.24106721
 H     10   8   6     1.086686652338   121.47019009   180.59811461
 S      1   2   3     1.824167988438   120.53963952     4.92929373
 O     12   1   2     1.475377692841   102.68257008   214.53424236
 O     12   1   2     1.486349804502   102.39659191   336.08140198
 N     12   1   2     1.566231716553   107.64473812    97.69615437
 H     15  12   1     1.022263295096   106.23703297   275.81575311

---------------------------
INTERNAL COORDINATES (A.U.)
---------------------------
 C      0   0   0     0.000000000000     0.00000000     0.00000000
 C      1   0   0     2.632265582677     0.00000000     0.00000000
 H      2   1   0     2.053508569329   118.50096419     0.00000000
 C      2   1   3     2.638143526959   119.98308864   178.73031622
 H      4   2   1     2.055934903034   119.86427432   180.43619552
 C      4   2   1     2.635654725604   120.19645073     0.08068293
 H      6   4   2     2.055147071748   120.20304375   180.10947217
 C      6   4   2     2.640438088800   119.62668849   359.67948133
 H      8   6   4     2.055703462041   119.89114882   180.49181600
 C      8   6   4     2.632414634209   120.21189024     0.24106721
 H     10   8   6     2.053540166307   121.47019009   180.59811461
 S      1   2   3     3.447177920414   120.53963952     4.92929373
 O     12   1   2     2.788059783567   102.68257008   214.53424236
 O     12   1   2     2.808794069717   102.39659191   336.08140198
 N     12   1   2     2.959749006546   107.64473812    97.69615437
 H     15  12   1     1.931797664491   106.23703297   275.81575311

---------------------
BASIS SET INFORMATION
---------------------
There are 5 groups of distinct atoms

 Group   1 Type C   : 19s6p3d2f contracted to 5s4p3d2f pattern {88111/3111/111/11}
 Group   2 Type H   : 6s3p2d contracted to 4s3p2d pattern {3111/111/11}
 Group   3 Type S   : 42s17p3d2f contracted to 6s5p3d2f pattern {131313111/77111/111/11}
 Group   4 Type O   : 19s6p3d2f contracted to 5s4p3d2f pattern {88111/3111/111/11}
 Group   5 Type N   : 19s6p3d2f contracted to 5s4p3d2f pattern {88111/3111/111/11}

Atom   0C    basis set group =>   1
Atom   1C    basis set group =>   1
Atom   2H    basis set group =>   2
Atom   3C    basis set group =>   1
Atom   4H    basis set group =>   2
Atom   5C    basis set group =>   1
Atom   6H    basis set group =>   2
Atom   7C    basis set group =>   1
Atom   8H    basis set group =>   2
Atom   9C    basis set group =>   1
Atom  10H    basis set group =>   2
Atom  11S    basis set group =>   3
Atom  12O    basis set group =>   4
Atom  13O    basis set group =>   4
Atom  14N    basis set group =>   5
Atom  15H    basis set group =>   2
---------------------------------
AUXILIARY/J BASIS SET INFORMATION
---------------------------------
There are 5 groups of distinct atoms

 Group   1 Type C   : 12s5p4d2f1g contracted to 6s4p3d1f1g pattern {711111/2111/211/2/1}
 Group   2 Type H   : 5s2p1d contracted to 3s1p1d pattern {311/2/1}
 Group   3 Type S   : 14s5p5d2f1g contracted to 8s4p3d1f1g pattern {71111111/2111/311/2/1}
 Group   4 Type O   : 12s5p4d2f1g contracted to 6s4p3d1f1g pattern {711111/2111/211/2/1}
 Group   5 Type N   : 12s5p4d2f1g contracted to 6s4p3d1f1g pattern {711111/2111/211/2/1}

Atom   0C    basis set group =>   1
Atom   1C    basis set group =>   1
Atom   2H    basis set group =>   2
Atom   3C    basis set group =>   1
Atom   4H    basis set group =>   2
Atom   5C    basis set group =>   1
Atom   6H    basis set group =>   2
Atom   7C    basis set group =>   1
Atom   8H    basis set group =>   2
Atom   9C    basis set group =>   1
Atom  10H    basis set group =>   2
Atom  11S    basis set group =>   3
Atom  12O    basis set group =>   4
Atom  13O    basis set group =>   4
Atom  14N    basis set group =>   5
Atom  15H    basis set group =>   2
---------------------------------
AUXILIARY/C BASIS SET INFORMATION
---------------------------------
There are 5 groups of distinct atoms

 Group   1 Type C   : 9s7p6d4f2g contracted to 9s7p6d4f2g pattern {111111111/1111111/111111/1111/11}
 Group   2 Type H   : 5s4p3d2f contracted to 5s4p3d2f pattern {11111/1111/111/11}
 Group   3 Type S   : 11s9p8d6f3g contracted to 11s9p8d6f3g pattern {11111111111/111111111/11111111/111111/111}
 Group   4 Type O   : 9s7p6d4f2g contracted to 9s7p6d4f2g pattern {111111111/1111111/111111/1111/11}
 Group   5 Type N   : 9s7p6d4f2g contracted to 9s7p6d4f2g pattern {111111111/1111111/111111/1111/11}

Atom   0C    basis set group =>   1
Atom   1C    basis set group =>   1
Atom   2H    basis set group =>   2
Atom   3C    basis set group =>   1
Atom   4H    basis set group =>   2
Atom   5C    basis set group =>   1
Atom   6H    basis set group =>   2
Atom   7C    basis set group =>   1
Atom   8H    basis set group =>   2
Atom   9C    basis set group =>   1
Atom  10H    basis set group =>   2
Atom  11S    basis set group =>   3
Atom  12O    basis set group =>   4
Atom  13O    basis set group =>   4
Atom  14N    basis set group =>   5
Atom  15H    basis set group =>   2


           ************************************************************
           *        Program running with 8 parallel MPI-processes     *
           *              working on a common directory               *
           ************************************************************
------------------------------------------------------------------------------
                           ORCA GTO INTEGRAL CALCULATION
                           -- RI-GTO INTEGRALS CHOSEN --
------------------------------------------------------------------------------
------------------------------------------------------------------------------
                   ___                                                        
                  /   \      - P O W E R E D   B Y -                         
                 /     \                                                     
                 |  |  |   _    _      __       _____    __    __             
                 |  |  |  | |  | |    /  \     |  _  \  |  |  /  |          
                  \  \/   | |  | |   /    \    | | | |  |  | /  /          
                 / \  \   | |__| |  /  /\  \   | |_| |  |  |/  /          
                |  |  |   |  __  | /  /__\  \  |    /   |      \           
                |  |  |   | |  | | |   __   |  |    \   |  |\   \          
                \     /   | |  | | |  |  |  |  | |\  \  |  | \   \       
                 \___/    |_|  |_| |__|  |__|  |_| \__\ |__|  \__/        
                                                                              
                      - O R C A' S   B I G   F R I E N D -                    
                                      &                                       
                       - I N T E G R A L  F E E D E R -                       
                                                                              
 v1 FN, 2020, v2 2021                                                         
------------------------------------------------------------------------------


Reading SHARK input file A.1.avtz.SHARKINP.tmp ... ok
----------------------
SHARK INTEGRAL PACKAGE
----------------------

Number of atoms                             ...     16
Number of basis functions                   ...    681
Number of shells                            ...    265
Maximum angular momentum                    ...      3
Integral batch strategy                     ... SHARK/LIBINT Hybrid
RI-J (if used) integral strategy            ... SPLIT-RIJ (Revised 2003 algorithm where possible)
Printlevel                                  ...      1
Contraction scheme used                     ... PARTIAL GENERAL contraction
Coulomb Range Separation                    ... NOT USED
Exchange Range Separation                   ... NOT USED
Finite Nucleus Model                        ... NOT USED
Auxiliary Coulomb fitting basis             ... AVAILABLE
   # of basis functions in Aux-J            ...    558
   # of shells in Aux-J                     ...    182
   Maximum angular momentum in Aux-J        ...      4
Auxiliary J/K fitting basis                 ... NOT available
Auxiliary Correlation fitting basis         ... AVAILABLE
   # of basis functions in Aux-C            ...   1377
   # of shells in Aux-C                     ...    373
   Maximum angular momentum in Aux-C        ...      4
Auxiliary 'external' fitting basis          ... NOT available
Integral threshold                          ...     2.500000e-11
Primitive cut-off                           ...     2.500000e-12
Primitive pair pre-selection threshold      ...     2.500000e-12

Calculating pre-screening integrals         ... done (  0.0 sec) Dimension = 265
Calculating pre-screening integrals (ORCA)  ... done (  0.1 sec) Dimension = 196
Organizing shell pair data                  ... done (  0.3 sec)
Shell pair information
Total number of shell pairs                 ...     35245
Shell pairs after pre-screening             ...     28380
Total number of primitive shell pairs       ...     43705
Primitive shell pairs kept                  ...     32958
          la=0 lb=0:   6278 shell pairs
          la=1 lb=0:   7313 shell pairs
          la=1 lb=1:   1916 shell pairs
          la=2 lb=0:   4891 shell pairs
          la=2 lb=1:   2508 shell pairs
          la=2 lb=2:    852 shell pairs
          la=3 lb=0:   2406 shell pairs
          la=3 lb=1:   1210 shell pairs
          la=3 lb=2:    802 shell pairs
          la=3 lb=3:    204 shell pairs

Calculating one electron integrals          ... done (  0.0 sec)
Calculating RI/J V-Matrix + Cholesky decomp.... done (  0.0 sec)
Calculating RI/C V-Matrix + Cholesky decomp.... done (  0.1 sec)
Calculating Nuclear repulsion               ... done (  0.0 sec) ENN=    616.770017199312 Eh

SHARK setup successfully completed in   1.0 seconds

Maximum memory used throughout the entire GTOINT-calculation: 69.9 MB


           ************************************************************
           *        Program running with 8 parallel MPI-processes     *
           *              working on a common directory               *
           ************************************************************
-------------------------------------------------------------------------------
                                 ORCA SCF
-------------------------------------------------------------------------------

------------
SCF SETTINGS
------------
Hamiltonian:
 Density Functional     Method          .... DFT(GTOs)
 Exchange Functional    Exchange        .... PBE
   PBE kappa parameter   XKappa         ....  0.804000
   PBE mue parameter    XMuePBE         ....  0.219520
 Correlation Functional Correlation     .... P86
 LDA part of GGA corr.  LDAOpt          .... VWN-5
 Gradients option       PostSCFGGA      .... off
 Hybrid DFT is turned on
   Fraction HF Exchange ScalHFX         ....  0.700000
   Scaling of DF-GGA-X  ScalDFX         ....  0.300000
   Scaling of DF-GGA-C  ScalDFC         ....  0.430000
   Scaling of DF-LDA-C  ScalLDAC        ....  0.430000
   Perturbative correction              ....  1.000000
   Density functional embedding theory  .... OFF
   NL short-range parameter             .... 14.200000
 RI-approximation to the Coulomb term is turned on
   Number of AuxJ basis functions       .... 558
   RIJ-COSX (HFX calculated with COS-X)).... on


General Settings:
 Integral files         IntName         .... A.1.avtz
 Hartree-Fock type      HFTyp           .... RHF
 Total Charge           Charge          ....   -1
 Multiplicity           Mult            ....    1
 Number of Electrons    NEL             ....   82
 Basis Dimension        Dim             ....  602
 Nuclear Repulsion      ENuc            ....    616.7700171993 Eh

Convergence Acceleration:
 DIIS                   CNVDIIS         .... on
   Start iteration      DIISMaxIt       ....    12
   Startup error        DIISStart       ....  0.200000
   # of expansion vecs  DIISMaxEq       ....     5
   Bias factor          DIISBfac        ....   1.050
   Max. coefficient     DIISMaxC        ....  10.000
 Trust-Rad. Augm. Hess. CNVTRAH         .... auto
   Auto Start mean grad. ratio tolernc. ....  1.125000
   Auto Start start iteration           ....    20
   Auto Start num. interpolation iter.  ....    10
   Max. Number of Micro iterations      ....    16
   Max. Number of Macro iterations      .... Maxiter - #DIIS iter
   Number of Davidson start vectors     ....     2
   Converg. threshold I  (grad. norm)   ....   1.000e-05
   Converg. threshold II (energy diff.) ....   1.000e-08
   Grad. Scal. Fac. for Micro threshold ....   0.100
   Minimum threshold for Micro iter.    ....   0.010
   NR start threshold (gradient norm)   ....   0.001
   Initial trust radius                 ....   0.400
   Minimum AH scaling param. (alpha)    ....   1.000
   Maximum AH scaling param. (alpha)    .... 1000.000
   Orbital update algorithm             .... Taylor
   White noise on init. David. guess    .... on
   Maximum white noise                  ....   0.010
   Quad. conv. algorithm                .... NR
 SOSCF                  CNVSOSCF        .... on
   Start iteration      SOSCFMaxIt      ....   150
   Startup grad/error   SOSCFStart      ....  0.003300
 Level Shifting         CNVShift        .... on
   Level shift para.    LevelShift      ....    0.2500
   Turn off err/grad.   ShiftErr        ....    0.0010
 Zerner damping         CNVZerner       .... off
 Static damping         CNVDamp         .... on
   Fraction old density DampFac         ....    0.7000
   Max. Damping (<1)    DampMax         ....    0.9800
   Min. Damping (>=0)   DampMin         ....    0.0000
   Turn off err/grad.   DampErr         ....    0.1000
 Fernandez-Rico         CNVRico         .... off

SCF Procedure:
 Maximum # iterations   MaxIter         ....   125
 SCF integral mode      SCFMode         .... Direct
   Integral package                     .... SHARK and LIBINT hybrid scheme
 Reset frequency        DirectResetFreq ....    20
 Integral Threshold     Thresh          ....  2.500e-11 Eh
 Primitive CutOff       TCut            ....  2.500e-12 Eh

Convergence Tolerance:
 Convergence Check Mode ConvCheckMode   .... Total+1el-Energy
 Convergence forced     ConvForced      .... 0
 Energy Change          TolE            ....  1.000e-08 Eh
 1-El. energy change                    ....  1.000e-05 Eh
 Orbital Gradient       TolG            ....  1.000e-05
 Orbital Rotation angle TolX            ....  1.000e-05
 DIIS Error             TolErr          ....  5.000e-07


Diagonalization of the overlap matrix:
Smallest eigenvalue                        ... 5.691e-07
Time for diagonalization                   ...    0.056 sec
Threshold for overlap eigenvalues          ... 1.000e-08
Number of eigenvalues below threshold      ... 0
Time for construction of square roots      ...    0.027 sec
Total time needed                          ...    0.087 sec

Time for model grid setup =    0.094 sec

------------------------------
INITIAL GUESS: MODEL POTENTIAL
------------------------------
Loading Hartree-Fock densities                     ... done
Calculating cut-offs                               ... done
Initializing the effective Hamiltonian             ... done
Setting up the integral package (SHARK)            ... done
Starting the Coulomb interaction                   ... done (   0.2 sec)
Reading the grid                                   ... done
Mapping shells                                     ... done
Starting the XC term evaluation                    ... done (   0.2 sec)
  promolecular density results
     # of electrons  =     81.000323002
     EX              =    -80.238203884
     EC              =      0.002088389
     EX+EC           =    -80.236115495
Transforming the Hamiltonian                       ... done (   0.0 sec)
Diagonalizing the Hamiltonian                      ... done (   0.1 sec)
Back transforming the eigenvectors                 ... done (   0.0 sec)
Now organizing SCF variables                       ... done
                      ------------------
                      INITIAL GUESS DONE (   0.6 sec)
                      ------------------
-------------------
DFT GRID GENERATION
-------------------

General Integration Accuracy     IntAcc      ... 4.388
Radial Grid Type                 RadialGrid  ... OptM3 with GC (2021)
Angular Grid (max. ang.)         AngularGrid ... 4 (Lebedev-302)
Angular grid pruning method      GridPruning ... 4 (adaptive)
Weight generation scheme         WeightScheme... Becke
Basis function cutoff            BFCut       ... 1.0000e-11
Integration weight cutoff        WCut        ... 1.0000e-14
Angular grids for H and He will be reduced by one unit
Partially contracted basis set               ... off
Rotationally invariant grid construction     ... off

Total number of grid points                  ...    84754
Total number of batches                      ...     1332
Average number of points per batch           ...       63
Average number of grid points per atom       ...     5297
Time for grid setup =    0.430 sec

--------------------
COSX GRID GENERATION
--------------------

GRIDX 1
-------
General Integration Accuracy     IntAcc      ... 3.816
Radial Grid Type                 RadialGrid  ... OptM3 with GC (2021)
Angular Grid (max. ang.)         AngularGrid ... 1 (Lebedev-50)
Angular grid pruning method      GridPruning ... 4 (adaptive)
Weight generation scheme         WeightScheme... Becke
Basis function cutoff            BFCut       ... 1.0000e-11
Integration weight cutoff        WCut        ... 1.0000e-14
Angular grids for H and He will be reduced by one unit
Partially contracted basis set               ... on
Rotationally invariant grid construction     ... off

Total number of grid points                  ...    10572
Total number of batches                      ...      173
Average number of points per batch           ...       61
Average number of grid points per atom       ...      661
UseSFitting                                  ... on

GRIDX 2
-------
General Integration Accuracy     IntAcc      ... 4.020
Radial Grid Type                 RadialGrid  ... OptM3 with GC (2021)
Angular Grid (max. ang.)         AngularGrid ... 2 (Lebedev-110)
Angular grid pruning method      GridPruning ... 4 (adaptive)
Weight generation scheme         WeightScheme... Becke
Basis function cutoff            BFCut       ... 1.0000e-11
Integration weight cutoff        WCut        ... 1.0000e-14
Angular grids for H and He will be reduced by one unit
Partially contracted basis set               ... on
Rotationally invariant grid construction     ... off

Total number of grid points                  ...    26227
Total number of batches                      ...      417
Average number of points per batch           ...       62
Average number of grid points per atom       ...     1639
UseSFitting                                  ... on

GRIDX 3
-------
General Integration Accuracy     IntAcc      ... 4.338
Radial Grid Type                 RadialGrid  ... OptM3 with GC (2021)
Angular Grid (max. ang.)         AngularGrid ... 3 (Lebedev-194)
Angular grid pruning method      GridPruning ... 4 (adaptive)
Weight generation scheme         WeightScheme... Becke
Basis function cutoff            BFCut       ... 1.0000e-11
Integration weight cutoff        WCut        ... 1.0000e-14
Angular grids for H and He will be reduced by one unit
Partially contracted basis set               ... on
Rotationally invariant grid construction     ... off

Total number of grid points                  ...    58577
Total number of batches                      ...      923
Average number of points per batch           ...       63
Average number of grid points per atom       ...     3661
UseSFitting                                  ... on

Time for X-Grid setup             =    0.736 sec

 re-compute Schwartz prescreening matrix in partically contracted basis (1) ...done (   0.085 sec)
--------------
SCF ITERATIONS
--------------
ITER       Energy         Delta-E        Max-DP      RMS-DP      [F,P]     Damp
               ***  Starting incremental Fock matrix formation  ***
  0   -833.3818137093   0.000000000000 0.10957912  0.00159304  0.3341210 0.7000
  1   -833.5620344136  -0.180220704216 0.08953498  0.00124147  0.1829181 0.7000
                               ***Turning on DIIS***
  2   -833.6504843358  -0.088449922268 0.22362211  0.00275640  0.0834585 0.0000
  3   -833.7974603550  -0.146976019142 0.05442924  0.00064202  0.0814131 0.0000
  4   -833.8192511982  -0.021790843262 0.01654227  0.00020089  0.0058433 0.0000
  5   -833.8198324298  -0.000581231597 0.00371298  0.00007157  0.0044686 0.0000
                      *** Initiating the SOSCF procedure ***
                           *** Shutting down DIIS ***
                      *** Re-Reading the Fockian *** 
                      *** Removing any level shift *** 
ITER      Energy       Delta-E        Grad      Rot      Max-DP    RMS-DP
  6   -833.81995634  -0.0001239120  0.000265  0.000265  0.002740  0.000039
               *** Restarting incremental Fock matrix formation ***
  7   -833.82001651  -0.0000601647  0.000188  0.000488  0.028521  0.000500
  8   -833.82002166  -0.0000051492  0.000082  0.000316  0.011109  0.000194
  9   -833.82002258  -0.0000009221  0.000039  0.000093  0.008375  0.000145
 10   -833.82002298  -0.0000004041  0.000009  0.000024  0.002055  0.000025
 11   -833.82002300  -0.0000000134  0.000007  0.000014  0.001969  0.000016
                  ***Gradient check signals convergence***
              ***Rediagonalizing the Fockian in SOSCF/NRSCF***

               *****************************************************
               *                     SUCCESS                       *
               *           SCF CONVERGED AFTER  12 CYCLES          *
               *****************************************************

Old exchange energy                            =    -57.173256507 Eh
New exchange energy                            =    -57.173140150 Eh
Exchange energy change after final integration =      0.000116357 Eh
Total energy after final integration           =   -833.819906637 Eh
Final COS-X integration done in                =    13.337 sec

----------------
TOTAL SCF ENERGY
----------------

Total Energy       :         -833.81990664 Eh          -22689.39317 eV

Components:
Nuclear Repulsion  :          616.77001720 Eh           16783.16541 eV
Electronic Energy  :        -1450.58992384 Eh          -39472.55857 eV
One Electron Energy:        -2381.71398060 Eh          -64809.73228 eV
Two Electron Energy:          931.12405676 Eh           25337.17370 eV
Max COSX asymmetry :            0.00001800 Eh               0.00049 eV

Virial components:
Potential Energy   :        -1665.32745642 Eh          -45315.86390 eV
Kinetic Energy     :          831.50754978 Eh           22626.47074 eV
Virial Ratio       :            2.00278092


DFT components:
N(Alpha)           :       41.000026067790 electrons
N(Beta)            :       41.000026067790 electrons
N(Total)           :       82.000052135580 electrons
E(X)               :      -24.415164307084 Eh       
E(C)               :       -1.365305024262 Eh       
E(XC)              :      -25.780469331345 Eh       
DFET-embed. en.    :        0.000000000000 Eh       

---------------
SCF CONVERGENCE
---------------

  Last Energy change         ...    1.5588e-09  Tolerance :   1.0000e-08
  Last MAX-Density change    ...    5.7732e-15  Tolerance :   1.0000e-07
  Last RMS-Density change    ...    2.2430e-17  Tolerance :   5.0000e-09
  Last Orbital Gradient      ...    1.8533e-06  Tolerance :   1.0000e-05
  Last Orbital Rotation      ...    4.2788e-06  Tolerance :   1.0000e-05

             **** THE GBW FILE WAS UPDATED (A.1.avtz.gbw) ****
             **** DENSITY A.1.avtz.scfp WAS UPDATED ****
             **** ENERGY FILE WAS UPDATED (A.1.avtz.en.tmp) ****
             **** THE GBW FILE WAS UPDATED (A.1.avtz.gbw) ****
             **** DENSITY A.1.avtz.scfp WAS UPDATED ****
----------------
ORBITAL ENERGIES
----------------

  NO   OCC          E(Eh)            E(eV) 
   0   2.0000     -90.835909     -2471.7708 
   1   2.0000     -19.818554      -539.2903 
   2   2.0000     -19.816787      -539.2422 
   3   2.0000     -14.876740      -404.8167 
   4   2.0000     -10.728771      -291.9447 
   5   2.0000     -10.726864      -291.8928 
   6   2.0000     -10.726220      -291.8753 
   7   2.0000     -10.720980      -291.7327 
   8   2.0000     -10.717261      -291.6315 
   9   2.0000     -10.717016      -291.6248 
  10   2.0000      -8.577814      -233.4142 
  11   2.0000      -6.364041      -173.1743 
  12   2.0000      -6.362332      -173.1279 
  13   2.0000      -6.361378      -173.1019 
  14   2.0000      -1.126786       -30.6614 
  15   2.0000      -1.011660       -27.5287 
  16   2.0000      -0.930392       -25.3172 
  17   2.0000      -0.869385       -23.6572 
  18   2.0000      -0.804713       -21.8973 
  19   2.0000      -0.803603       -21.8672 
  20   2.0000      -0.644442       -17.5362 
  21   2.0000      -0.631769       -17.1913 
  22   2.0000      -0.564209       -15.3529 
  23   2.0000      -0.514868       -14.0103 
  24   2.0000      -0.457624       -12.4526 
  25   2.0000      -0.448770       -12.2117 
  26   2.0000      -0.431159       -11.7324 
  27   2.0000      -0.415210       -11.2984 
  28   2.0000      -0.412865       -11.2346 
  29   2.0000      -0.381092       -10.3700 
  30   2.0000      -0.348041        -9.4707 
  31   2.0000      -0.343560        -9.3487 
  32   2.0000      -0.322996        -8.7892 
  33   2.0000      -0.284506        -7.7418 
  34   2.0000      -0.251667        -6.8482 
  35   2.0000      -0.237612        -6.4658 
  36   2.0000      -0.221218        -6.0196 
  37   2.0000      -0.198208        -5.3935 
  38   2.0000      -0.197240        -5.3672 
  39   2.0000      -0.186103        -5.0641 
  40   2.0000      -0.146201        -3.9783 
  41   0.0000       0.090622         2.4659 
  42   0.0000       0.100098         2.7238 
  43   0.0000       0.110415         3.0046 
  44   0.0000       0.129543         3.5250 
  45   0.0000       0.134419         3.6577 
  46   0.0000       0.140742         3.8298 
  47   0.0000       0.164203         4.4682 
  48   0.0000       0.166708         4.5364 
  49   0.0000       0.170103         4.6287 
  50   0.0000       0.178309         4.8520 
  51   0.0000       0.181106         4.9281 
  52   0.0000       0.182446         4.9646 
  53   0.0000       0.186560         5.0766 
  54   0.0000       0.188890         5.1400 
  55   0.0000       0.191090         5.1998 
  56   0.0000       0.202434         5.5085 
  57   0.0000       0.208140         5.6638 
  58   0.0000       0.213976         5.8226 
  59   0.0000       0.219692         5.9781 
  60   0.0000       0.222027         6.0417 
  61   0.0000       0.225906         6.1472 
  62   0.0000       0.229425         6.2430 
  63   0.0000       0.231440         6.2978 
  64   0.0000       0.239728         6.5233 
  65   0.0000       0.242586         6.6011 
  66   0.0000       0.247306         6.7296 
  67   0.0000       0.255397         6.9497 
  68   0.0000       0.267631         7.2826 
  69   0.0000       0.273908         7.4534 
  70   0.0000       0.277168         7.5421 
  71   0.0000       0.298042         8.1101 
  72   0.0000       0.300164         8.1679 
  73   0.0000       0.303631         8.2622 
  74   0.0000       0.315191         8.5768 
  75   0.0000       0.319052         8.6819 
  76   0.0000       0.326118         8.8741 
  77   0.0000       0.329690         8.9713 
  78   0.0000       0.340561         9.2671 
  79   0.0000       0.343431         9.3452 
  80   0.0000       0.350865         9.5475 
  81   0.0000       0.353211         9.6113 
  82   0.0000       0.358714         9.7611 
  83   0.0000       0.360868         9.8197 
  84   0.0000       0.365739         9.9523 
  85   0.0000       0.369191        10.0462 
  86   0.0000       0.379126        10.3165 
  87   0.0000       0.381957        10.3936 
  88   0.0000       0.382668        10.4129 
  89   0.0000       0.384377        10.4594 
  90   0.0000       0.392169        10.6715 
  91   0.0000       0.394298        10.7294 
  92   0.0000       0.397240        10.8095 
  93   0.0000       0.397479        10.8160 
  94   0.0000       0.406187        11.0529 
  95   0.0000       0.410771        11.1777 
  96   0.0000       0.426116        11.5952 
  97   0.0000       0.427681        11.6378 
  98   0.0000       0.432727        11.7751 
  99   0.0000       0.438072        11.9206 
 100   0.0000       0.444286        12.0896 
 101   0.0000       0.450977        12.2717 
 102   0.0000       0.454610        12.3706 
 103   0.0000       0.462220        12.5777 
 104   0.0000       0.464437        12.6380 
 105   0.0000       0.470390        12.8000 
 106   0.0000       0.483200        13.1486 
 107   0.0000       0.488894        13.3035 
 108   0.0000       0.492095        13.3906 
 109   0.0000       0.501141        13.6368 
 110   0.0000       0.506033        13.7699 
 111   0.0000       0.515180        14.0188 
 112   0.0000       0.520930        14.1752 
 113   0.0000       0.527905        14.3650 
 114   0.0000       0.529810        14.4169 
 115   0.0000       0.538686        14.6584 
 116   0.0000       0.540686        14.7128 
 117   0.0000       0.544350        14.8125 
 118   0.0000       0.549199        14.9445 
 119   0.0000       0.554412        15.0863 
 120   0.0000       0.563244        15.3266 
 121   0.0000       0.566000        15.4016 
 122   0.0000       0.571995        15.5648 
 123   0.0000       0.575430        15.6583 
 124   0.0000       0.579256        15.7624 
 125   0.0000       0.584016        15.8919 
 126   0.0000       0.592125        16.1125 
 127   0.0000       0.595073        16.1928 
 128   0.0000       0.600052        16.3283 
 129   0.0000       0.606380        16.5004 
 130   0.0000       0.612506        16.6671 
 131   0.0000       0.616081        16.7644 
 132   0.0000       0.619883        16.8679 
 133   0.0000       0.629236        17.1224 
 134   0.0000       0.633501        17.2384 
 135   0.0000       0.639793        17.4097 
 136   0.0000       0.644780        17.5454 
 137   0.0000       0.652743        17.7620 
 138   0.0000       0.660533        17.9740 
 139   0.0000       0.673662        18.3313 
 140   0.0000       0.685198        18.6452 
 141   0.0000       0.690469        18.7886 
 142   0.0000       0.699448        19.0330 
 143   0.0000       0.707897        19.2629 
 144   0.0000       0.709731        19.3128 
 145   0.0000       0.715147        19.4602 
 146   0.0000       0.726766        19.7763 
 147   0.0000       0.729120        19.8404 
 148   0.0000       0.732077        19.9208 
 149   0.0000       0.740502        20.1501 
 150   0.0000       0.743530        20.2325 
 151   0.0000       0.750660        20.4265 
 152   0.0000       0.757204        20.6046 
 153   0.0000       0.768049        20.8997 
 154   0.0000       0.780261        21.2320 
 155   0.0000       0.785041        21.3621 
 156   0.0000       0.790036        21.4980 
 157   0.0000       0.796423        21.6718 
 158   0.0000       0.804372        21.8881 
 159   0.0000       0.811620        22.0853 
 160   0.0000       0.817719        22.2513 
 161   0.0000       0.830586        22.6014 
 162   0.0000       0.841650        22.9025 
 163   0.0000       0.846759        23.0415 
 164   0.0000       0.860426        23.4134 
 165   0.0000       0.870446        23.6860 
 166   0.0000       0.883893        24.0519 
 167   0.0000       0.889012        24.1912 
 168   0.0000       0.898908        24.4605 
 169   0.0000       0.905051        24.6277 
 170   0.0000       0.910086        24.7647 
 171   0.0000       0.913974        24.8705 
 172   0.0000       0.920629        25.0516 
 173   0.0000       0.924802        25.1651 
 174   0.0000       0.932259        25.3681 
 175   0.0000       0.935400        25.4535 
 176   0.0000       0.936662        25.4879 
 177   0.0000       0.941434        25.6177 
 178   0.0000       0.947978        25.7958 
 179   0.0000       0.951996        25.9051 
 180   0.0000       0.958488        26.0818 
 181   0.0000       0.966388        26.2968 
 182   0.0000       0.973861        26.5001 
 183   0.0000       0.983516        26.7628 
 184   0.0000       0.994028        27.0489 
 185   0.0000       0.998620        27.1738 
 186   0.0000       1.005225        27.3536 
 187   0.0000       1.011671        27.5290 
 188   0.0000       1.014377        27.6026 
 189   0.0000       1.028610        27.9899 
 190   0.0000       1.037422        28.2297 
 191   0.0000       1.042686        28.3729 
 192   0.0000       1.053324        28.6624 
 193   0.0000       1.058614        28.8063 
 194   0.0000       1.063557        28.9409 
 195   0.0000       1.073251        29.2046 
 196   0.0000       1.081820        29.4378 
 197   0.0000       1.086630        29.5687 
 198   0.0000       1.090664        29.6785 
 199   0.0000       1.099233        29.9116 
 200   0.0000       1.108911        30.1750 
 201   0.0000       1.109354        30.1871 
 202   0.0000       1.118020        30.4229 
 203   0.0000       1.120521        30.4909 
 204   0.0000       1.125074        30.6148 
 205   0.0000       1.133421        30.8419 
 206   0.0000       1.137786        30.9607 
 207   0.0000       1.145619        31.1739 
 208   0.0000       1.149852        31.2891 
 209   0.0000       1.151230        31.3266 
 210   0.0000       1.156146        31.4603 
 211   0.0000       1.158139        31.5146 
 212   0.0000       1.166328        31.7374 
 213   0.0000       1.169211        31.8159 
 214   0.0000       1.176613        32.0173 
 215   0.0000       1.184555        32.2334 
 216   0.0000       1.193815        32.4854 
 217   0.0000       1.203410        32.7465 
 218   0.0000       1.210134        32.9294 
 219   0.0000       1.215302        33.0701 
 220   0.0000       1.219677        33.1891 
 221   0.0000       1.226561        33.3764 
 222   0.0000       1.229261        33.4499 
 223   0.0000       1.234989        33.6058 
 224   0.0000       1.241230        33.7756 
 225   0.0000       1.246569        33.9209 
 226   0.0000       1.253796        34.1175 
 227   0.0000       1.261966        34.3398 
 228   0.0000       1.268536        34.5186 
 229   0.0000       1.268752        34.5245 
 230   0.0000       1.277082        34.7512 
 231   0.0000       1.283215        34.9180 
 232   0.0000       1.293982        35.2110 
 233   0.0000       1.298853        35.3436 
 234   0.0000       1.320577        35.9347 
 235   0.0000       1.324364        36.0378 
 236   0.0000       1.328543        36.1515 
 237   0.0000       1.335830        36.3498 
 238   0.0000       1.341363        36.5003 
 239   0.0000       1.352231        36.7961 
 240   0.0000       1.366984        37.1975 
 241   0.0000       1.378249        37.5041 
 242   0.0000       1.382022        37.6067 
 243   0.0000       1.385870        37.7114 
 244   0.0000       1.393033        37.9063 
 245   0.0000       1.406852        38.2824 
 246   0.0000       1.422558        38.7098 
 247   0.0000       1.427309        38.8390 
 248   0.0000       1.430727        38.9320 
 249   0.0000       1.440155        39.1886 
 250   0.0000       1.443596        39.2823 
 251   0.0000       1.463121        39.8136 
 252   0.0000       1.466136        39.8956 
 253   0.0000       1.476880        40.1880 
 254   0.0000       1.490062        40.5467 
 255   0.0000       1.492293        40.6073 
 256   0.0000       1.504847        40.9490 
 257   0.0000       1.517620        41.2965 
 258   0.0000       1.527051        41.5532 
 259   0.0000       1.530154        41.6376 
 260   0.0000       1.540600        41.9219 
 261   0.0000       1.557836        42.3909 
 262   0.0000       1.567828        42.6628 
 263   0.0000       1.573062        42.8052 
 264   0.0000       1.585298        43.1382 
 265   0.0000       1.597443        43.4686 
 266   0.0000       1.605402        43.6852 
 267   0.0000       1.617018        44.0013 
 268   0.0000       1.627820        44.2952 
 269   0.0000       1.643839        44.7311 
 270   0.0000       1.649510        44.8855 
 271   0.0000       1.664035        45.2807 
 272   0.0000       1.672635        45.5147 
 273   0.0000       1.680977        45.7417 
 274   0.0000       1.695722        46.1429 
 275   0.0000       1.710354        46.5411 
 276   0.0000       1.715518        46.6816 
 277   0.0000       1.719427        46.7880 
 278   0.0000       1.732888        47.1543 
 279   0.0000       1.740609        47.3644 
 280   0.0000       1.753361        47.7114 
 281   0.0000       1.774577        48.2887 
 282   0.0000       1.780313        48.4448 
 283   0.0000       1.786287        48.6074 
 284   0.0000       1.796326        48.8805 
 285   0.0000       1.809642        49.2428 
 286   0.0000       1.830641        49.8143 
 287   0.0000       1.848419        50.2980 
 288   0.0000       1.857272        50.5390 
 289   0.0000       1.860370        50.6232 
 290   0.0000       1.870178        50.8901 
 291   0.0000       1.879027        51.1309 
 292   0.0000       1.891176        51.4615 
 293   0.0000       1.901602        51.7452 
 294   0.0000       1.907998        51.9193 
 295   0.0000       1.918690        52.2102 
 296   0.0000       1.925060        52.3835 
 297   0.0000       1.931985        52.5720 
 298   0.0000       1.949757        53.0556 
 299   0.0000       1.967907        53.5495 
 300   0.0000       1.978070        53.8260 
 301   0.0000       1.986490        54.0551 
 302   0.0000       1.998493        54.3818 
 303   0.0000       2.008418        54.6518 
 304   0.0000       2.010518        54.7090 
 305   0.0000       2.034194        55.3532 
 306   0.0000       2.041331        55.5474 
 307   0.0000       2.044408        55.6312 
 308   0.0000       2.055951        55.9453 
 309   0.0000       2.060998        56.0826 
 310   0.0000       2.070458        56.3400 
 311   0.0000       2.077805        56.5399 
 312   0.0000       2.088269        56.8247 
 313   0.0000       2.106468        57.3199 
 314   0.0000       2.111072        57.4452 
 315   0.0000       2.122558        57.7577 
 316   0.0000       2.132481        58.0278 
 317   0.0000       2.136978        58.1501 
 318   0.0000       2.145500        58.3820 
 319   0.0000       2.156360        58.6775 
 320   0.0000       2.160916        58.8015 
 321   0.0000       2.180568        59.3363 
 322   0.0000       2.199702        59.8569 
 323   0.0000       2.205583        60.0170 
 324   0.0000       2.217587        60.3436 
 325   0.0000       2.226163        60.5770 
 326   0.0000       2.246859        61.1402 
 327   0.0000       2.272019        61.8248 
 328   0.0000       2.277981        61.9870 
 329   0.0000       2.286927        62.2304 
 330   0.0000       2.303363        62.6777 
 331   0.0000       2.310429        62.8700 
 332   0.0000       2.327932        63.3462 
 333   0.0000       2.344218        63.7894 
 334   0.0000       2.349634        63.9368 
 335   0.0000       2.360755        64.2394 
 336   0.0000       2.368242        64.4431 
 337   0.0000       2.381737        64.8104 
 338   0.0000       2.397077        65.2278 
 339   0.0000       2.412536        65.6484 
 340   0.0000       2.419111        65.8273 
 341   0.0000       2.421289        65.8866 
 342   0.0000       2.435154        66.2639 
 343   0.0000       2.439374        66.3788 
 344   0.0000       2.453091        66.7520 
 345   0.0000       2.453708        66.7688 
 346   0.0000       2.466939        67.1288 
 347   0.0000       2.477643        67.4201 
 348   0.0000       2.499057        68.0028 
 349   0.0000       2.502539        68.0976 
 350   0.0000       2.517787        68.5125 
 351   0.0000       2.527585        68.7791 
 352   0.0000       2.535254        68.9878 
 353   0.0000       2.552341        69.4527 
 354   0.0000       2.558418        69.6181 
 355   0.0000       2.579316        70.1868 
 356   0.0000       2.588255        70.4300 
 357   0.0000       2.596115        70.6439 
 358   0.0000       2.615053        71.1592 
 359   0.0000       2.630951        71.5918 
 360   0.0000       2.647990        72.0555 
 361   0.0000       2.660965        72.4085 
 362   0.0000       2.675172        72.7951 
 363   0.0000       2.686357        73.0995 
 364   0.0000       2.694546        73.3223 
 365   0.0000       2.714759        73.8723 
 366   0.0000       2.724323        74.1326 
 367   0.0000       2.739845        74.5550 
 368   0.0000       2.745758        74.7159 
 369   0.0000       2.777660        75.5840 
 370   0.0000       2.791122        75.9503 
 371   0.0000       2.815717        76.6195 
 372   0.0000       2.832650        77.0803 
 373   0.0000       2.842273        77.3422 
 374   0.0000       2.852445        77.6190 
 375   0.0000       2.879414        78.3528 
 376   0.0000       2.887725        78.5790 
 377   0.0000       2.897823        78.8538 
 378   0.0000       2.911351        79.2219 
 379   0.0000       2.928247        79.6816 
 380   0.0000       2.946709        80.1840 
 381   0.0000       2.969571        80.8061 
 382   0.0000       2.984444        81.2108 
 383   0.0000       3.001229        81.6676 
 384   0.0000       3.005080        81.7724 
 385   0.0000       3.020092        82.1809 
 386   0.0000       3.065282        83.4106 
 387   0.0000       3.078781        83.7779 
 388   0.0000       3.099900        84.3526 
 389   0.0000       3.155321        85.8606 
 390   0.0000       3.167942        86.2041 
 391   0.0000       3.186817        86.7177 
 392   0.0000       3.191847        86.8546 
 393   0.0000       3.203658        87.1760 
 394   0.0000       3.216143        87.5157 
 395   0.0000       3.233493        87.9878 
 396   0.0000       3.252795        88.5131 
 397   0.0000       3.272460        89.0482 
 398   0.0000       3.308356        90.0250 
 399   0.0000       3.324716        90.4701 
 400   0.0000       3.346006        91.0494 
 401   0.0000       3.359587        91.4190 
 402   0.0000       3.362656        91.5025 
 403   0.0000       3.381405        92.0127 
 404   0.0000       3.397007        92.4373 
 405   0.0000       3.409973        92.7901 
 406   0.0000       3.412732        92.8652 
 407   0.0000       3.431458        93.3747 
 408   0.0000       3.440055        93.6087 
 409   0.0000       3.446327        93.7793 
 410   0.0000       3.480290        94.7035 
 411   0.0000       3.486899        94.8833 
 412   0.0000       3.493285        95.0571 
 413   0.0000       3.512637        95.5837 
 414   0.0000       3.521805        95.8332 
 415   0.0000       3.528890        96.0260 
 416   0.0000       3.549420        96.5846 
 417   0.0000       3.552800        96.6766 
 418   0.0000       3.563643        96.9716 
 419   0.0000       3.578346        97.3717 
 420   0.0000       3.595702        97.8440 
 421   0.0000       3.600116        97.9641 
 422   0.0000       3.615182        98.3741 
 423   0.0000       3.627980        98.7223 
 424   0.0000       3.633347        98.8684 
 425   0.0000       3.644839        99.1811 
 426   0.0000       3.674013        99.9750 
 427   0.0000       3.694245       100.5255 
 428   0.0000       3.707340       100.8818 
 429   0.0000       3.743962       101.8784 
 430   0.0000       3.748859       102.0116 
 431   0.0000       3.781901       102.9108 
 432   0.0000       3.784548       102.9828 
 433   0.0000       3.793898       103.2372 
 434   0.0000       3.810340       103.6846 
 435   0.0000       3.819625       103.9373 
 436   0.0000       3.838017       104.4378 
 437   0.0000       3.843323       104.5821 
 438   0.0000       3.845480       104.6408 
 439   0.0000       3.874105       105.4198 
 440   0.0000       3.892666       105.9248 
 441   0.0000       3.894717       105.9806 
 442   0.0000       3.903597       106.2223 
 443   0.0000       3.926972       106.8583 
 444   0.0000       3.933724       107.0421 
 445   0.0000       3.940106       107.2157 
 446   0.0000       3.972898       108.1080 
 447   0.0000       3.976219       108.1984 
 448   0.0000       3.981744       108.3488 
 449   0.0000       4.010969       109.1440 
 450   0.0000       4.014837       109.2493 
 451   0.0000       4.018662       109.3534 
 452   0.0000       4.041560       109.9764 
 453   0.0000       4.077966       110.9671 
 454   0.0000       4.100813       111.5888 
 455   0.0000       4.118983       112.0832 
 456   0.0000       4.134694       112.5108 
 457   0.0000       4.140751       112.6756 
 458   0.0000       4.165207       113.3410 
 459   0.0000       4.171088       113.5011 
 460   0.0000       4.199319       114.2693 
 461   0.0000       4.208245       114.5122 
 462   0.0000       4.218674       114.7960 
 463   0.0000       4.249097       115.6238 
 464   0.0000       4.257554       115.8539 
 465   0.0000       4.262482       115.9880 
 466   0.0000       4.266342       116.0931 
 467   0.0000       4.286758       116.6486 
 468   0.0000       4.313495       117.3762 
 469   0.0000       4.332455       117.8921 
 470   0.0000       4.339746       118.0905 
 471   0.0000       4.352060       118.4256 
 472   0.0000       4.358713       118.6066 
 473   0.0000       4.382581       119.2561 
 474   0.0000       4.404453       119.8513 
 475   0.0000       4.409498       119.9885 
 476   0.0000       4.416887       120.1896 
 477   0.0000       4.433071       120.6300 
 478   0.0000       4.446995       121.0089 
 479   0.0000       4.451547       121.1328 
 480   0.0000       4.460870       121.3864 
 481   0.0000       4.471470       121.6749 
 482   0.0000       4.482847       121.9845 
 483   0.0000       4.503488       122.5461 
 484   0.0000       4.516299       122.8947 
 485   0.0000       4.553409       123.9046 
 486   0.0000       4.569359       124.3386 
 487   0.0000       4.622584       125.7869 
 488   0.0000       4.649954       126.5317 
 489   0.0000       4.675269       127.2205 
 490   0.0000       4.681817       127.3987 
 491   0.0000       4.693298       127.7111 
 492   0.0000       4.707063       128.0857 
 493   0.0000       4.708444       128.1233 
 494   0.0000       4.737588       128.9163 
 495   0.0000       4.754970       129.3893 
 496   0.0000       4.772608       129.8693 
 497   0.0000       4.779664       130.0613 
 498   0.0000       4.827501       131.3630 
 499   0.0000       4.848997       131.9479 
 500   0.0000       4.862713       132.3211 
 501   0.0000       4.873826       132.6235 
 502   0.0000       4.912480       133.6754 
 503   0.0000       4.920524       133.8943 
 504   0.0000       4.935482       134.3013 
 505   0.0000       4.936913       134.3402 
 506   0.0000       4.968961       135.2123 
 507   0.0000       4.986477       135.6889 
 508   0.0000       5.001434       136.0959 
 509   0.0000       5.015048       136.4664 
 510   0.0000       5.048264       137.3702 
 511   0.0000       5.056925       137.6059 
 512   0.0000       5.066671       137.8711 
 513   0.0000       5.088811       138.4736 
 514   0.0000       5.101439       138.8172 
 515   0.0000       5.131122       139.6249 
 516   0.0000       5.137710       139.8042 
 517   0.0000       5.146449       140.0420 
 518   0.0000       5.164251       140.5264 
 519   0.0000       5.176238       140.8526 
 520   0.0000       5.190093       141.2296 
 521   0.0000       5.218613       142.0057 
 522   0.0000       5.233309       142.4056 
 523   0.0000       5.253812       142.9635 
 524   0.0000       5.272903       143.4830 
 525   0.0000       5.285750       143.8326 
 526   0.0000       5.298446       144.1781 
 527   0.0000       5.316446       144.6678 
 528   0.0000       5.328997       145.0094 
 529   0.0000       5.338228       145.2606 
 530   0.0000       5.367547       146.0584 
 531   0.0000       5.406600       147.1211 
 532   0.0000       5.418834       147.4540 
 533   0.0000       5.441994       148.0842 
 534   0.0000       5.474960       148.9812 
 535   0.0000       5.497782       149.6022 
 536   0.0000       5.531913       150.5310 
 537   0.0000       5.585016       151.9760 
 538   0.0000       5.604117       152.4958 
 539   0.0000       5.612237       152.7167 
 540   0.0000       5.726817       155.8346 
 541   0.0000       5.747095       156.3864 
 542   0.0000       5.756303       156.6370 
 543   0.0000       5.765812       156.8957 
 544   0.0000       5.771757       157.0575 
 545   0.0000       5.810942       158.1238 
 546   0.0000       5.861009       159.4862 
 547   0.0000       5.885974       160.1655 
 548   0.0000       5.994054       163.1065 
 549   0.0000       6.013753       163.6425 
 550   0.0000       6.040423       164.3683 
 551   0.0000       6.089620       165.7070 
 552   0.0000       6.122360       166.5979 
 553   0.0000       6.142609       167.1489 
 554   0.0000       6.209344       168.9648 
 555   0.0000       6.223616       169.3532 
 556   0.0000       6.238654       169.7624 
 557   0.0000       6.288987       171.1320 
 558   0.0000       6.312214       171.7641 
 559   0.0000       6.468046       176.0045 
 560   0.0000       6.491831       176.6517 
 561   0.0000       6.540056       177.9640 
 562   0.0000       6.672494       181.5678 
 563   0.0000       6.724386       182.9799 
 564   0.0000       6.729090       183.1079 
 565   0.0000       6.770024       184.2217 
 566   0.0000       6.811890       185.3610 
 567   0.0000       6.852225       186.4585 
 568   0.0000       6.877334       187.1418 
 569   0.0000       6.920441       188.3148 
 570   0.0000       6.934332       188.6928 
 571   0.0000       6.947000       189.0375 
 572   0.0000       6.964405       189.5111 
 573   0.0000       6.995530       190.3581 
 574   0.0000       7.008859       190.7207 
 575   0.0000       7.021468       191.0639 
 576   0.0000       7.035921       191.4571 
 577   0.0000       7.048695       191.8047 
 578   0.0000       7.067045       192.3041 
 579   0.0000       7.110264       193.4801 
 580   0.0000       7.156209       194.7303 
 581   0.0000       7.213914       196.3006 
 582   0.0000       7.265867       197.7143 
 583   0.0000       7.285135       198.2386 
 584   0.0000       7.341887       199.7829 
 585   0.0000       7.351414       200.0422 
 586   0.0000       7.558305       205.6719 
 587   0.0000       7.619148       207.3275 
 588   0.0000       7.664862       208.5715 
 589   0.0000       7.714410       209.9198 
 590   0.0000       7.758634       211.1232 
 591   0.0000       7.787417       211.9064 
 592   0.0000      12.670571       344.7838 
 593   0.0000      12.872994       350.2920 
 594   0.0000      13.794593       375.3700 
 595   0.0000      14.412396       392.1812 
 596   0.0000      15.801910       429.9918 
 597   0.0000      15.905196       432.8024 
 598   0.0000      17.846302       485.6226 
 599   0.0000      19.110893       520.0338 
 600   0.0000      19.253606       523.9173 
 601   0.0000      19.687552       535.7255 

                    ********************************
                    * MULLIKEN POPULATION ANALYSIS *
                    ********************************

-----------------------
MULLIKEN ATOMIC CHARGES
-----------------------
   0 C :    1.006644
   1 C :   -0.864576
   2 H :    0.494009
   3 C :   -0.469483
   4 H :    0.377336
   5 C :   -0.520566
   6 H :    0.540660
   7 C :   -0.533725
   8 H :    0.375607
   9 C :   -0.879875
  10 H :    0.526178
  11 S :    1.935409
  12 O :   -1.010825
  13 O :   -1.010809
  14 N :   -1.082838
  15 H :    0.116855
Sum of atomic charges:   -1.0000000

--------------------------------
MULLIKEN REDUCED ORBITAL CHARGES
--------------------------------
  0 C s       :     2.894340  s :     2.894340
      pz      :     0.526480  p :     2.203679
      px      :     0.752468
      py      :     0.924731
      dz2     :    -0.060441  d :    -0.053757
      dxz     :     0.017790
      dyz     :     0.018452
      dx2y2   :    -0.019340
      dxy     :    -0.010218
      f0      :     0.000973  f :    -0.050905
      f+1     :    -0.039987
      f-1     :    -0.001187
      f+2     :    -0.005577
      f-2     :    -0.004907
      f+3     :    -0.001582
      f-3     :     0.001362
  1 C s       :     4.010584  s :     4.010584
      pz      :     0.751110  p :     2.797884
      px      :     1.098912
      py      :     0.947862
      dz2     :    -0.012905  d :     0.076245
      dxz     :     0.072546
      dyz     :     0.008820
      dx2y2   :    -0.003228
      dxy     :     0.011011
      f0      :    -0.001254  f :    -0.020137
      f+1     :    -0.023143
      f-1     :     0.000105
      f+2     :     0.003876
      f-2     :     0.000471
      f+3     :    -0.001245
      f-3     :     0.001053
  2 H s       :     0.517188  s :     0.517188
      pz      :    -0.005091  p :    -0.011439
      px      :    -0.027261
      py      :     0.020913
      dz2     :    -0.001143  d :     0.000242
      dxz     :    -0.001598
      dyz     :     0.001371
      dx2y2   :    -0.000814
      dxy     :     0.002424
  3 C s       :     3.371734  s :     3.371734
      pz      :     1.092577  p :     3.070964
      px      :     0.988941
      py      :     0.989446
      dz2     :    -0.034576  d :     0.037711
      dxz     :     0.041922
      dyz     :     0.019050
      dx2y2   :     0.000357
      dxy     :     0.010957
      f0      :    -0.000283  f :    -0.010926
      f+1     :    -0.015771
      f-1     :     0.001337
      f+2     :     0.003474
      f-2     :     0.000580
      f+3     :    -0.001405
      f-3     :     0.001143
  4 H s       :     0.583385  s :     0.583385
      pz      :     0.009698  p :     0.035133
      px      :     0.007635
      py      :     0.017800
      dz2     :     0.000691  d :     0.004146
      dxz     :     0.001418
      dyz     :     0.000760
      dx2y2   :    -0.001301
      dxy     :     0.002577
  5 C s       :     3.457868  s :     3.457868
      pz      :     1.067452  p :     3.045690
      px      :     0.986305
      py      :     0.991934
      dz2     :    -0.018991  d :     0.024329
      dxz     :     0.020916
      dyz     :     0.006337
      dx2y2   :    -0.011241
      dxy     :     0.027308
      f0      :     0.006849  f :    -0.007322
      f+1     :    -0.012383
      f-1     :     0.000259
      f+2     :    -0.004284
      f-2     :     0.000203
      f+3     :     0.000501
      f-3     :     0.001533
  6 H s       :     0.478892  s :     0.478892
      pz      :    -0.038287  p :    -0.023659
      px      :     0.001118
      py      :     0.013511
      dz2     :     0.000053  d :     0.004106
      dxz     :     0.000563
      dyz     :     0.003480
      dx2y2   :     0.000168
      dxy     :    -0.000158
  7 C s       :     3.394113  s :     3.394113
      pz      :     1.074692  p :     3.086831
      px      :     1.026819
      py      :     0.985319
      dz2     :    -0.025564  d :     0.064453
      dxz     :     0.055857
      dyz     :     0.019726
      dx2y2   :     0.001519
      dxy     :     0.012914
      f0      :    -0.000682  f :    -0.011671
      f+1     :    -0.015456
      f-1     :     0.001206
      f+2     :     0.002966
      f-2     :     0.000400
      f+3     :    -0.000902
      f-3     :     0.000798
  8 H s       :     0.582599  s :     0.582599
      pz      :     0.012210  p :     0.037626
      px      :     0.007487
      py      :     0.017929
      dz2     :     0.000765  d :     0.004168
      dxz     :     0.001193
      dyz     :     0.000750
      dx2y2   :    -0.001380
      dxy     :     0.002840
  9 C s       :     3.940296  s :     3.940296
      pz      :     0.841704  p :     2.872244
      px      :     1.087356
      py      :     0.943184
      dz2     :    -0.002201  d :     0.084200
      dxz     :     0.067835
      dyz     :     0.010900
      dx2y2   :    -0.005892
      dxy     :     0.013557
      f0      :    -0.001790  f :    -0.016865
      f+1     :    -0.020300
      f-1     :    -0.000039
      f+2     :     0.004992
      f-2     :     0.000551
      f+3     :    -0.001449
      f-3     :     0.001170
 10 H s       :     0.483808  s :     0.483808
      pz      :    -0.000090  p :    -0.012004
      px      :    -0.028733
      py      :     0.016819
      dz2     :     0.000284  d :     0.002019
      dxz     :    -0.000782
      dyz     :     0.001105
      dx2y2   :    -0.000631
      dxy     :     0.002042
 11 S s       :     5.136836  s :     5.136836
      pz      :     2.755527  p :     8.015576
      px      :     2.643342
      py      :     2.616708
      dz2     :     0.272547  d :     0.831398
      dxz     :     0.110627
      dyz     :     0.151186
      dx2y2   :     0.184303
      dxy     :     0.112735
      f0      :     0.006535  f :     0.080780
      f+1     :     0.000939
      f-1     :     0.005439
      f+2     :     0.013631
      f-2     :     0.006269
      f+3     :     0.033815
      f-3     :     0.014153
 12 O s       :     3.962105  s :     3.962105
      pz      :     1.801871  p :     4.982089
      px      :     1.459149
      py      :     1.721069
      dz2     :     0.008231  d :     0.059641
      dxz     :     0.015359
      dyz     :     0.006902
      dx2y2   :     0.013793
      dxy     :     0.015355
      f0      :     0.000516  f :     0.006990
      f+1     :     0.001396
      f-1     :     0.000525
      f+2     :     0.000711
      f-2     :     0.000964
      f+3     :     0.002162
      f-3     :     0.000716
 13 O s       :     3.944477  s :     3.944477
      pz      :     1.808128  p :     5.002585
      px      :     1.412816
      py      :     1.781641
      dz2     :     0.007001  d :     0.056917
      dxz     :     0.014941
      dyz     :     0.005026
      dx2y2   :     0.013926
      dxy     :     0.016023
      f0      :     0.000561  f :     0.006831
      f+1     :     0.001357
      f-1     :     0.000392
      f+2     :     0.000758
      f-2     :     0.000819
      f+3     :     0.002108
      f-3     :     0.000837
 14 N s       :     3.935214  s :     3.935214
      pz      :     1.650617  p :     4.054134
      px      :     1.308669
      py      :     1.094848
      dz2     :     0.006899  d :     0.087201
      dxz     :     0.006274
      dyz     :     0.023339
      dx2y2   :     0.026598
      dxy     :     0.024091
      f0      :     0.001037  f :     0.006289
      f+1     :     0.000251
      f-1     :     0.001447
      f+2     :     0.001306
      f-2     :     0.000310
      f+3     :     0.001216
      f-3     :     0.000722
 15 H s       :     0.771253  s :     0.771253
      pz      :     0.054298  p :     0.093686
      px      :     0.001817
      py      :     0.037570
      dz2     :    -0.000727  d :     0.018206
      dxz     :     0.007135
      dyz     :     0.001959
      dx2y2   :     0.003477
      dxy     :     0.006362


                     *******************************
                     * LOEWDIN POPULATION ANALYSIS *
                     *******************************

----------------------
LOEWDIN ATOMIC CHARGES
----------------------
   0 C :   -0.249736
   1 C :    0.138440
   2 H :   -0.215584
   3 C :    0.163156
   4 H :   -0.195171
   5 C :    0.156548
   6 H :   -0.197990
   7 C :    0.165832
   8 H :   -0.194304
   9 C :    0.140487
  10 H :   -0.200262
  11 S :   -0.141584
  12 O :   -0.020298
  13 O :   -0.022092
  14 N :    0.271389
  15 H :   -0.598832

-------------------------------
LOEWDIN REDUCED ORBITAL CHARGES
-------------------------------
  0 C s       :     2.504572  s :     2.504572
      pz      :     0.826193  p :     2.343095
      px      :     0.898795
      py      :     0.618107
      dz2     :     0.260575  d :     0.924413
      dxz     :     0.243779
      dyz     :     0.127187
      dx2y2   :     0.164116
      dxy     :     0.128756
      f0      :     0.060933  f :     0.477655
      f+1     :     0.177233
      f-1     :     0.042224
      f+2     :     0.056640
      f-2     :     0.062221
      f+3     :     0.047075
      f-3     :     0.031329
  1 C s       :     2.488016  s :     2.488016
      pz      :     0.857978  p :     2.295863
      px      :     0.845323
      py      :     0.592562
      dz2     :     0.206907  d :     0.729385
      dxz     :     0.254170
      dyz     :     0.115667
      dx2y2   :     0.091027
      dxy     :     0.061614
      f0      :     0.057208  f :     0.348296
      f+1     :     0.132291
      f-1     :     0.044836
      f+2     :     0.034536
      f-2     :     0.028387
      f+3     :     0.026867
      f-3     :     0.024170
  2 H s       :     0.659812  s :     0.659812
      pz      :     0.114852  p :     0.322209
      px      :     0.125895
      py      :     0.081462
      dz2     :     0.063859  d :     0.233563
      dxz     :     0.056396
      dyz     :     0.020411
      dx2y2   :     0.048067
      dxy     :     0.044830
  3 C s       :     2.489293  s :     2.489293
      pz      :     0.850804  p :     2.294411
      px      :     0.834055
      py      :     0.609552
      dz2     :     0.177901  d :     0.717406
      dxz     :     0.271763
      dyz     :     0.110859
      dx2y2   :     0.089003
      dxy     :     0.067880
      f0      :     0.051569  f :     0.335734
      f+1     :     0.132573
      f-1     :     0.041499
      f+2     :     0.034013
      f-2     :     0.023581
      f+3     :     0.026100
      f-3     :     0.026398
  4 H s       :     0.677850  s :     0.677850
      pz      :     0.093092  p :     0.304710
      px      :     0.121130
      py      :     0.090488
      dz2     :     0.050157  d :     0.212610
      dxz     :     0.052033
      dyz     :     0.019216
      dx2y2   :     0.046384
      dxy     :     0.044820
  5 C s       :     2.489300  s :     2.489300
      pz      :     0.825493  p :     2.298903
      px      :     0.859879
      py      :     0.613531
      dz2     :     0.212862  d :     0.720674
      dxz     :     0.173052
      dyz     :     0.042099
      dx2y2   :     0.153234
      dxy     :     0.139427
      f0      :     0.030961  f :     0.334575
      f+1     :     0.120559
      f-1     :     0.005711
      f+2     :     0.045854
      f-2     :     0.059427
      f+3     :     0.045005
      f-3     :     0.027058
  6 H s       :     0.679043  s :     0.679043
      pz      :     0.137445  p :     0.306282
      px      :     0.076881
      py      :     0.091956
      dz2     :     0.061080  d :     0.212665
      dxz     :     0.081404
      dyz     :     0.059693
      dx2y2   :     0.005909
      dxy     :     0.004579
  7 C s       :     2.489152  s :     2.489152
      pz      :     0.853271  p :     2.294127
      px      :     0.831729
      py      :     0.609127
      dz2     :     0.186029  d :     0.715253
      dxz     :     0.262782
      dyz     :     0.113088
      dx2y2   :     0.090946
      dxy     :     0.062408
      f0      :     0.053169  f :     0.335635
      f+1     :     0.131853
      f-1     :     0.040718
      f+2     :     0.032292
      f-2     :     0.027898
      f+3     :     0.026249
      f-3     :     0.023458
  8 H s       :     0.677545  s :     0.677545
      pz      :     0.090770  p :     0.304189
      px      :     0.124063
      py      :     0.089357
      dz2     :     0.046430  d :     0.212570
      dxz     :     0.055614
      dyz     :     0.016746
      dx2y2   :     0.046737
      dxy     :     0.047042
  9 C s       :     2.487907  s :     2.487907
      pz      :     0.859071  p :     2.292979
      px      :     0.846272
      py      :     0.587635
      dz2     :     0.197647  d :     0.730651
      dxz     :     0.262693
      dyz     :     0.113382
      dx2y2   :     0.090612
      dxy     :     0.066317
      f0      :     0.055572  f :     0.347976
      f+1     :     0.132377
      f-1     :     0.044601
      f+2     :     0.036778
      f-2     :     0.024246
      f+3     :     0.027087
      f-3     :     0.027315
 10 H s       :     0.660103  s :     0.660103
      pz      :     0.110515  p :     0.314128
      px      :     0.123306
      py      :     0.080307
      dz2     :     0.060023  d :     0.226031
      dxz     :     0.053234
      dyz     :     0.024001
      dx2y2   :     0.047536
      dxy     :     0.041237
 11 S s       :     4.501748  s :     4.501748
      pz      :     2.661951  p :     8.113351
      px      :     2.712458
      py      :     2.738942
      dz2     :     0.487398  d :     2.289014
      dxz     :     0.372031
      dyz     :     0.360849
      dx2y2   :     0.550013
      dxy     :     0.518722
      f0      :     0.131690  f :     1.237471
      f+1     :     0.167093
      f-1     :     0.121462
      f+2     :     0.149638
      f-2     :     0.129572
      f+3     :     0.354847
      f-3     :     0.183170
 12 O s       :     3.330122  s :     3.330122
      pz      :     1.482811  p :     4.395901
      px      :     1.430121
      py      :     1.482970
      dz2     :     0.039160  d :     0.225210
      dxz     :     0.047648
      dyz     :     0.020061
      dx2y2   :     0.058760
      dxy     :     0.059581
      f0      :     0.005912  f :     0.069065
      f+1     :     0.011630
      f-1     :     0.004733
      f+2     :     0.006283
      f-2     :     0.010805
      f+3     :     0.014621
      f-3     :     0.015080
 13 O s       :     3.329470  s :     3.329470
      pz      :     1.488788  p :     4.401405
      px      :     1.422139
      py      :     1.490478
      dz2     :     0.038733  d :     0.224024
      dxz     :     0.050658
      dyz     :     0.014621
      dx2y2   :     0.060602
      dxy     :     0.059411
      f0      :     0.005773  f :     0.067192
      f+1     :     0.012288
      f-1     :     0.003487
      f+2     :     0.007351
      f-2     :     0.008141
      f+3     :     0.014621
      f-3     :     0.015532
 14 N s       :     2.920320  s :     2.920320
      pz      :     1.171649  p :     3.374535
      px      :     1.156146
      py      :     1.046740
      dz2     :     0.046233  d :     0.321530
      dxz     :     0.007250
      dyz     :     0.067921
      dx2y2   :     0.105882
      dxy     :     0.094243
      f0      :     0.008002  f :     0.112226
      f+1     :     0.004674
      f-1     :     0.022041
      f+2     :     0.017883
      f-2     :     0.004548
      f+3     :     0.028683
      f-3     :     0.026397
 15 H s       :     0.677401  s :     0.677401
      pz      :     0.176231  p :     0.568429
      px      :     0.246035
      py      :     0.146163
      dz2     :     0.033085  d :     0.353002
      dxz     :     0.091312
      dyz     :     0.022791
      dx2y2   :     0.118050
      dxy     :     0.087765


                      *****************************
                      * MAYER POPULATION ANALYSIS *
                      *****************************

  NA   - Mulliken gross atomic population
  ZA   - Total nuclear charge
  QA   - Mulliken gross atomic charge
  VA   - Mayer's total valence
  BVA  - Mayer's bonded valence
  FA   - Mayer's free valence

  ATOM       NA         ZA         QA         VA         BVA        FA
  0 C      4.9934     6.0000     1.0066     2.6146     2.6146    -0.0000
  1 C      6.8646     6.0000    -0.8646     2.6970     2.6970    -0.0000
  2 H      0.5060     1.0000     0.4940     0.6093     0.6093    -0.0000
  3 C      6.4695     6.0000    -0.4695     2.8295     2.8295     0.0000
  4 H      0.6227     1.0000     0.3773     0.9078     0.9078    -0.0000
  5 C      6.5206     6.0000    -0.5206     3.1901     3.1901    -0.0000
  6 H      0.4593     1.0000     0.5407     0.5024     0.5024    -0.0000
  7 C      6.5337     6.0000    -0.5337     2.8671     2.8671     0.0000
  8 H      0.6244     1.0000     0.3756     0.9112     0.9112     0.0000
  9 C      6.8799     6.0000    -0.8799     2.9225     2.9225    -0.0000
 10 H      0.4738     1.0000     0.5262     0.5465     0.5465     0.0000
 11 S     14.0646    16.0000     1.9354     4.5940     4.5940    -0.0000
 12 O      9.0108     8.0000    -1.0108     1.3639     1.3639     0.0000
 13 O      9.0108     8.0000    -1.0108     1.3361     1.3361    -0.0000
 14 N      8.0828     7.0000    -1.0828     2.4851     2.4851     0.0000
 15 H      0.8831     1.0000     0.1169     1.0865     1.0865     0.0000

  Mayer bond orders larger than 0.100000
B(  0-C ,  1-C ) :   0.6261 B(  0-C ,  3-C ) :  -0.1232 B(  0-C ,  5-C ) :  -0.1106 
B(  0-C ,  9-C ) :   0.8656 B(  0-C , 11-S ) :   0.9007 B(  0-C , 14-N ) :   0.1963 
B(  1-C ,  2-H ) :   0.6175 B(  1-C ,  3-C ) :   1.0306 B(  1-C ,  5-C ) :   0.2428 
B(  1-C ,  7-C ) :  -0.1005 B(  1-C ,  9-C ) :   0.3491 B(  3-C ,  4-H ) :   0.9597 
B(  3-C ,  5-C ) :   1.2037 B(  3-C ,  7-C ) :  -0.1020 B(  5-C ,  6-H ) :   0.6288 
B(  5-C ,  7-C ) :   1.1863 B(  5-C ,  9-C ) :   0.1910 B(  7-C ,  8-H ) :   0.9723 
B(  7-C ,  9-C ) :   1.1210 B(  9-C , 10-H ) :   0.5784 B( 11-S , 12-O ) :   1.2369 
B( 11-S , 13-O ) :   1.1692 B( 11-S , 14-N ) :   1.3154 B( 14-N , 15-H ) :   0.9344 


-------
TIMINGS
-------

Total SCF time: 0 days 0 hours 1 min 30 sec 

Total time                  ....      90.994 sec
Sum of individual times     ....      89.508 sec  ( 98.4%)

Fock matrix formation       ....      86.062 sec  ( 94.6%)
  Split-RI-J                ....       5.323 sec  (  6.2% of F)
  Chain of spheres X        ....      67.967 sec  ( 79.0% of F)
  XC integration            ....      12.275 sec  ( 14.3% of F)
    Basis function eval.    ....       2.301 sec  ( 18.7% of XC)
    Density eval.           ....       4.307 sec  ( 35.1% of XC)
    XC-Functional eval.     ....       0.162 sec  (  1.3% of XC)
    XC-Potential eval.      ....       4.656 sec  ( 37.9% of XC)
Diagonalization             ....       0.638 sec  (  0.7%)
Density matrix formation    ....       0.063 sec  (  0.1%)
Population analysis         ....       0.075 sec  (  0.1%)
Initial guess               ....       0.548 sec  (  0.6%)
Orbital Transformation      ....       0.000 sec  (  0.0%)
Orbital Orthonormalization  ....       0.000 sec  (  0.0%)
DIIS solution               ....       0.380 sec  (  0.4%)
SOSCF solution              ....       0.481 sec  (  0.5%)
Grid generation             ....       1.261 sec  (  1.4%)

Maximum memory used throughout the entire SCF-calculation: 130.5 MB


           ************************************************************
           *        Program running with 8 parallel MPI-processes     *
           *              working on a common directory               *
           ************************************************************

------------------------------------------------------------------------------
                                ORCA  MP2 
------------------------------------------------------------------------------

Freezing NCore=28 chemical core electrons

   <<< Use J-auxbasis for calculation of Separable RI-J derivative contributions (Dim=558) >>> 


-------------
RI-MP2 ENERGY
-------------
Dimension of the basis                    ...  602
Memory devoted to MP2                     ... 5000 MB   
Data format for buffers                   ... DOUBLE
Compression type for matrix containers    ... UNCOMPRESSED
Scaling for aa/bb pairs                   ...   2.500e-01
Scaling for ab pairs                      ...   5.300e-01
Overall scaling of the MP2 energy         ...   1.000e+00
Calculating two index integrals           ... done (    0.026 sec)
Cholesky decomposition of V**-1           ... done (    0.187 sec)

-----------------
RI-TRANSFORMATION (AUX index driven)
-----------------

Dimension of the orbital-basis         ... 602
Dimension of the aux-basis             ... 1377
Transformation of internal/external MOs...   14-  40 to   41- 601
Number Format for Storage              ... Double (8 Byte)
Integral mode                          ... Direct

First Phase: integral generation and transformation of MO indices
  Aux angular momentum 0               ... done (    0.185 sec)
  Aux angular momentum 1               ... done (    0.293 sec)
  Aux angular momentum 2               ... done (    0.415 sec)
  Aux angular momentum 3               ... done (    0.417 sec)
  Aux angular momentum 4               ... done (    0.233 sec)
Closing buffer VIA ( 0.16 GB; CompressionRatio= 1.00)
  Phase 1 completed in     1.748 sec
Second Phase: sorting and transformation of aux index

IA-Transformation
Memory available                       ... 4934 MB 
Max. # MO pairs treated in a batch     ... 4    
# of internal orbitals                 ... 27
# batches for internal orbitals        ... 1
Closing buffer IAV ( 0.16 GB; CompressionRatio= 1.00)
(ia|v) transformation done in     0.237 sec

  Phase 2 completed in     0.300 sec
RI-Integral transformation completed in     2.052 sec
Opening buffers                              ... done

Starting loop over batches of integrals:

Operator 0  - window                       ... ( 14- 40)x( 41-601)
Operator 0  - Memory available             ...  5000 MB
Operator 0  - Memory needed per MO         ...   5.9 MB
Operator 0  - Number of orbitals per batch ... 4
Operator 0  - Number of batches            ... 1

OPERATOR  0   PASS   0:  MOs    14 ...   17 +   18 ...   21 +   22 ...   25 +   26 ...   29
                            +   30 ...   33 +   34 ...   37 +   38 ...   40
  Reading integrals       ... ok
  Internal MO  16
Time spent in pair loops =     0.215 sec
Deleting buffer (Ka|jb)[aa] ...done

-----------------------------------------------
 RI-MP2 CORRELATION ENERGY:     -0.963437187 Eh
-----------------------------------------------


-------
TIMINGS
-------

Total time                :    4.124 sec
Integral trafo            :    2.066 sec ( 50.1%)
I/O of integrals          :    0.010 sec (  0.3%)
K(i,j) Operators          :    0.157 sec (  3.8%)
T(i,j) pair energies      :    0.030 sec (  0.7%)
V-calculation             :    0.026 sec (  0.6%)
V**(-1/2)                 :    0.187 sec (  4.5%)
Gamma(ia|P)               :    0.000 sec (  0.0%)
Gamma-Trafo               :    0.000 sec (  0.0%)
D(virtual)                :    0.000 sec (  0.0%)
D(internal)               :    0.000 sec (  0.0%)
W(virtual)                :    0.000 sec (  0.0%)
W(internal)               :    0.000 sec (  0.0%)
L(virtual)                :    0.000 sec (  0.0%)
L(internal)               :    0.000 sec (  0.0%)
G(D)                      :    0.000 sec (  0.0%)
G(Z)                      :    0.000 sec (  0.0%)
Z-Vector Solution         :    0.000 sec (  0.0%)
3-Index Derivative        :    0.000 sec (  0.0%)
2-Index Derivative        :    0.000 sec (  0.0%)
Separable Gradient (RIJ)  :    0.000 sec (  0.0%)
Separable Gradient (COSX) :    0.000 sec (  0.0%)


---------------------------------------
MP2 TOTAL ENERGY:     -834.783343823 Eh
---------------------------------------

Maximum memory used throughout the entire MP2-calculation: 145.3 MB


-------------------------------------------------------------------------------
                          DFT DISPERSION CORRECTION                            
                                                                               
                              DFTD3 V3.1  Rev 1                                
                          USING Becke-Johnson damping                          
-------------------------------------------------------------------------------
The DSD-PBEP86 functional is recognized
Active option DFTDOPT                   ...         4   

molecular C6(AA) [au] = 3999.695627 


            DFT-D V3
 parameters
 s6 scaling factor         :     0.4180 
 a1 scaling factor         :     0.0000 
 s8 scaling factor         :     0.0000 
 a2 scaling factor         :     5.6500 
 ad hoc parameters k1-k3   :    16.0000     1.3333    -4.0000 

 Edisp/kcal,au: -7.599390231953  -0.012110397907 
 E6   /kcal   :  -7.599390232 
 E8   /kcal   :  -0.000000000 
 % E8         :   0.000000000 

-------------------------   ----------------
Dispersion correction           -0.012110398
-------------------------   ----------------


-------------------------   --------------------
FINAL SINGLE POINT ENERGY      -834.795454221400
-------------------------   --------------------


                            ***************************************
                            *     ORCA property calculations      *
                            ***************************************


  WARNING: The energy has been calculated at the MP2 level but the densities
           used in the property calculations are still SCF densities
           MP2 response densities have not been calculated 
           use %mp2 Density relaxed end
           or  %mp2 Density unrelaxed end

                                    ---------------------
                                    Active property flags
                                    ---------------------
   (+) Dipole Moment


------------------------------------------------------------------------------
                       ORCA ELECTRIC PROPERTIES CALCULATION
------------------------------------------------------------------------------

Dipole Moment Calculation                       ... on
Quadrupole Moment Calculation                   ... off
Polarizability Calculation                      ... off
GBWName                                         ... A.1.avtz.gbw
Electron density                                ... A.1.avtz.scfp
The origin for moment calculation is the CENTER OF MASS  = (-2.548169,  1.265730 -1.147292)

-------------
DIPOLE MOMENT
-------------
                                X             Y             Z
Electronic contribution:      0.17004       1.09713       5.45331
Nuclear contribution   :     -0.53935      -0.89523      -8.70268
                        -----------------------------------------
Total Dipole Moment    :     -0.36931       0.20190      -3.24937
                        -----------------------------------------
Magnitude (a.u.)       :      3.27652
Magnitude (Debye)      :      8.32824



--------------------
Rotational spectrum 
--------------------
 
Rotational constants in cm-1:     0.088269     0.027811     0.024234 
Rotational constants in MHz :  2646.226437   833.739649   726.504293 

 Dipole components along the rotational axes: 
x,y,z [a.u.] :    -3.243767     0.433956     0.158822 
x,y,z [Debye]:    -8.245000     1.103030     0.403695 

 

Timings for individual modules:

Sum of individual times         ...      100.899 sec (=   1.682 min)
GTO integral calculation        ...        2.336 sec (=   0.039 min)   2.3 %
SCF iterations                  ...       92.448 sec (=   1.541 min)  91.6 %
MP2 module                      ...        6.114 sec (=   0.102 min)   6.1 %
                             ****ORCA TERMINATED NORMALLY****
TOTAL RUN TIME: 0 days 0 hours 1 minutes 43 seconds 750 msec
