
                                 *****************
                                 * O   R   C   A *
                                 *****************

                                            #,                                       
                                            ###                                      
                                            ####                                     
                                            #####                                    
                                            ######                                   
                                           ########,                                 
                                     ,,################,,,,,                         
                               ,,#################################,,                 
                          ,,##########################################,,             
                       ,#########################################, ''#####,          
                    ,#############################################,,   '####,        
                  ,##################################################,,,,####,       
                ,###########''''           ''''###############################       
              ,#####''   ,,,,##########,,,,          '''####'''          '####       
            ,##' ,,,,###########################,,,                        '##       
           ' ,,###''''                  '''############,,,                           
         ,,##''                                '''############,,,,        ,,,,,,###''
      ,#''                                            '''#######################'''  
     '                                                          ''''####''''         
             ,#######,   #######,   ,#######,      ##                                
            ,#'     '#,  ##    ##  ,#'     '#,    #''#        ######   ,####,        
            ##       ##  ##   ,#'  ##            #'  '#       #        #'  '#        
            ##       ##  #######   ##           ,######,      #####,   #    #        
            '#,     ,#'  ##    ##  '#,     ,#' ,#      #,         ##   #,  ,#        
             '#######'   ##     ##  '#######'  #'      '#     #####' # '####'        



                  #######################################################
                  #                        -***-                        #
                  #          Department of theory and spectroscopy      #
                  #    Directorship and core code : Frank Neese         #
                  #        Max Planck Institute fuer Kohlenforschung    #
                  #                Kaiser Wilhelm Platz 1               #
                  #                 D-45470 Muelheim/Ruhr               #
                  #                      Germany                        #
                  #                                                     #
                  #                  All rights reserved                #
                  #                        -***-                        #
                  #######################################################


                         Program Version 5.0.3 -  RELEASE  -


 With contributions from (in alphabetic order):
   Daniel Aravena         : Magnetic Suceptibility
   Michael Atanasov       : Ab Initio Ligand Field Theory (pilot matlab implementation)
   Alexander A. Auer      : GIAO ZORA, VPT2 properties, NMR spectrum
   Ute Becker             : Parallelization
   Giovanni Bistoni       : ED, misc. LED, open-shell LED, HFLD
   Martin Brehm           : Molecular dynamics
   Dmytro Bykov           : SCF Hessian
   Vijay G. Chilkuri      : MRCI spin determinant printing, contributions to CSF-ICE
   Dipayan Datta          : RHF DLPNO-CCSD density
   Achintya Kumar Dutta   : EOM-CC, STEOM-CC
   Dmitry Ganyushin       : Spin-Orbit,Spin-Spin,Magnetic field MRCI
   Miquel Garcia          : C-PCM and meta-GGA Hessian, CC/C-PCM, Gaussian charge scheme
   Yang Guo               : DLPNO-NEVPT2, F12-NEVPT2, CIM, IAO-localization
   Andreas Hansen         : Spin unrestricted coupled pair/coupled cluster methods
   Benjamin Helmich-Paris : MC-RPA, TRAH-SCF, COSX integrals
   Lee Huntington         : MR-EOM, pCC
   Robert Izsak           : Overlap fitted RIJCOSX, COSX-SCS-MP3, EOM
   Marcus Kettner         : VPT2
   Christian Kollmar      : KDIIS, OOCD, Brueckner-CCSD(T), CCSD density, CASPT2, CASPT2-K
   Simone Kossmann        : Meta GGA functionals, TD-DFT gradient, OOMP2, MP2 Hessian
   Martin Krupicka        : Initial AUTO-CI
   Lucas Lang             : DCDCAS
   Marvin Lechner         : AUTO-CI (C++ implementation), FIC-MRCC
   Dagmar Lenk            : GEPOL surface, SMD
   Dimitrios Liakos       : Extrapolation schemes; Compound Job, initial MDCI parallelization
   Dimitrios Manganas     : Further ROCIS development; embedding schemes
   Dimitrios Pantazis     : SARC Basis sets
   Anastasios Papadopoulos: AUTO-CI, single reference methods and gradients
   Taras Petrenko         : DFT Hessian,TD-DFT gradient, ASA, ECA, R-Raman, ABS, FL, XAS/XES, NRVS
   Peter Pinski           : DLPNO-MP2, DLPNO-MP2 Gradient
   Christoph Reimann      : Effective Core Potentials
   Marius Retegan         : Local ZFS, SOC
   Christoph Riplinger    : Optimizer, TS searches, QM/MM, DLPNO-CCSD(T), (RO)-DLPNO pert. Triples
   Tobias Risthaus        : Range-separated hybrids, TD-DFT gradient, RPA, STAB
   Michael Roemelt        : Original ROCIS implementation
   Masaaki Saitow         : Open-shell DLPNO-CCSD energy and density
   Barbara Sandhoefer     : DKH picture change effects
   Avijit Sen             : IP-ROCIS
   Kantharuban Sivalingam : CASSCF convergence, NEVPT2, FIC-MRCI
   Bernardo de Souza      : ESD, SOC TD-DFT
   Georgi Stoychev        : AutoAux, RI-MP2 NMR, DLPNO-MP2 response
   Willem Van den Heuvel  : Paramagnetic NMR
   Boris Wezisla          : Elementary symmetry handling
   Frank Wennmohs         : Technical directorship


 We gratefully acknowledge several colleagues who have allowed us to
 interface, adapt or use parts of their codes:
   Stefan Grimme, W. Hujo, H. Kruse, P. Pracht,  : VdW corrections, initial TS optimization,
                  C. Bannwarth, S. Ehlert          DFT functionals, gCP, sTDA/sTD-DF
   Ed Valeev, F. Pavosevic, A. Kumar             : LibInt (2-el integral package), F12 methods
   Garnet Chan, S. Sharma, J. Yang, R. Olivares  : DMRG
   Ulf Ekstrom                                   : XCFun DFT Library
   Mihaly Kallay                                 : mrcc  (arbitrary order and MRCC methods)
   Jiri Pittner, Ondrej Demel                    : Mk-CCSD
   Frank Weinhold                                : gennbo (NPA and NBO analysis)
   Christopher J. Cramer and Donald G. Truhlar   : smd solvation model
   Lars Goerigk                                  : TD-DFT with DH, B97 family of functionals
   V. Asgeirsson, H. Jonsson                     : NEB implementation
   FAccTs GmbH                                   : IRC, NEB, NEB-TS, DLPNO-Multilevel, CI-OPT
                                                   MM, QMMM, 2- and 3-layer-ONIOM, Crystal-QMMM,
                                                   LR-CPCM, SF, NACMEs, symmetry and pop. for TD-DFT,
                                                   nearIR, NL-DFT gradient (VV10), updates on ESD,
                                                   ML-optimized integration grids
   S Lehtola, MJT Oliveira, MAL Marques          : LibXC Library
   Liviu Ungur et al                             : ANISO software


 Your calculation uses the libint2 library for the computation of 2-el integrals
 For citations please refer to: http://libint.valeyev.net

 Your ORCA version has been built with support for libXC version: 5.1.0
 For citations please refer to: https://tddft.org/programs/libxc/

 This ORCA versions uses:
   CBLAS   interface :  Fast vector & matrix operations
   LAPACKE interface :  Fast linear algebra routines
   SCALAPACK package :  Parallel linear algebra routines
   Shared memory     :  Shared parallel matrices
   BLAS/LAPACK       :  OpenBLAS 0.3.15  USE64BITINT DYNAMIC_ARCH NO_AFFINITY SkylakeX SINGLE_THREADED
        Core in use  :  SkylakeX
   Copyright (c) 2011-2014, The OpenBLAS Project


Your calculation utilizes the atom-pairwise dispersion correction
with the Becke-Johnson damping scheme (D3BJ)
Cite in your paper:
S.Grimme, S.Ehrlich, L.Goerigk, J Comput Chem, (2011), 32, 1456–1465 
S.Grimme, J.Antony, S.Ehrlich and H.Krieg, J.Chem.Phys., 132, (2010), 154104 
   

================================================================================

----- Orbital basis set information -----
Your calculation utilizes the basis: aug-cc-pVTZ 
    H, B-Ne : Obtained from the ccRepo (grant-hill.group.shef.ac.uk/ccrepo) Feb. 2017
              R. A. Kendall, T. H. Dunning, Jr., R. J. Harrison, J. Chem. Phys. 96, 6796 (1992)
         He : Obtained from the ccRepo (grant-hill.group.shef.ac.uk/ccrepo) Feb. 2017
              D. E. Woon, T. H. Dunning, Jr., J. Chem. Phys. 100, 2975 (1994)
  Li-Be, Na : Obtained from the ccRepo (grant-hill.group.shef.ac.uk/ccrepo) Feb. 2017
              B. P. Prascher, D. E. Woon, K. A. Peterson, T. H. Dunning, Jr., A. K. Wilson, Theor. Chem. Acc. 128, 69 (2011)
         Mg : Obtained from the Peterson Research Group Website (tyr0.chem.wsu.edu/~kipeters) Feb. 2017
              B. P. Prascher, D. E. Woon, K. A. Peterson, T. H. Dunning, Jr., A. K. Wilson, Theor. Chem. Acc. 128, 69 (2011)
      Al-Ar : Obtained from the ccRepo (grant-hill.group.shef.ac.uk/ccrepo) Feb. 2017
              D. E. Woon, T. H. Dunning, Jr., J. Chem. Phys. 98, 1358 (1993)
      Sc-Zn : Obtained from the ccRepo (grant-hill.group.shef.ac.uk/ccrepo) Feb. 2017
              N. B. Balabanov, K. A. Peterson, J. Chem. Phys. 123, 064107 (2005)
              N. B. Balabanov, K. A. Peterson, J. Chem. Phys. 125, 074110 (2006)
      Ga-Kr : Obtained from the ccRepo (grant-hill.group.shef.ac.uk/ccrepo) Feb. 2017
              A. K. Wilson, D. E. Woon, K. A. Peterson, T. H. Dunning, Jr., J. Chem. Phys. 110, 7667 (1999)
     Ag, Au : Obtained from the Peterson Research Group Website (tyr0.chem.wsu.edu/~kipeters) Feb. 2017
              K. A. Peterson, C. Puzzarini, Theor. Chem. Acc. 114, 283 (2005)

----- AuxJ basis set information -----
Your calculation utilizes the auxiliary basis: def2/J
   F. Weigend, Phys. Chem. Chem. Phys. 8, 1057 (2006).

----- AuxC basis set information -----
Your calculation utilizes the auxiliary basis: aug-cc-pVTZ/C 
  H-He, B-F, Al-Ar, Ga-Kr : Obtained from the EMSL Basis Set Exchange (bse.pnl.gov) Feb. 2017
                            F. Weigend, A. Kohn, C. Hattig, J. Chem. Phys. 116, 3175 (2002)
                   Be, Mg : Obtained from the TURBOMOLE 7.0 basis set library
                            C. Haettig, Phys. Chem. Chem. Phys. 7, 59 (2005)
                       Ne : Obtained from the EMSL Basis Set Exchange (bse.pnl.gov) Feb. 2017
                            C. Haettig, Phys. Chem. Chem. Phys. 7, 59 (2005)
                            F. Weigend, A. Kohn, C. Hattig, J. Chem. Phys. 116, 3175 (2002)
                    Sc-Zn : Obtained from the EMSL Basis Set Exchange (bse.pnl.gov) Feb. 2017
                            J. G. Hill, J. A. Platts, J. Chem. Phys. 128, 044104 (2008)

================================================================================
                                        WARNINGS
                       Please study these warnings very carefully!
================================================================================


WARNING: No MP2 level density has been requested!
         To caclulate MP2 level properties use
         %mp2 Density relaxed end
         or
         %mp2 Density unrelaxed end
         Otherwise for double-hybrid DFT only the energy is correct!

WARNING: There are different parametrizations of Gershom Martin's DSD-DFs
         for use with and without D3(BJ)!
         You are using the D3(BJ) parametrized version,
         consistent with the GMTKN55 benchmark (L. Goerigk et al., PCCP 2017, 19, 32184)

WARNING: The frozen-core approximation is turned on by default for 
         the MP2 part of double-hybrid DFT.

INFO   : the flag for use of the SHARK integral package has been found!

================================================================================
                                       INPUT FILE
================================================================================
NAME = A.10.avtz.com
|  1> !PAL8
|  2> !RI-DSD-PBEP86 D3BJ aug-cc-pVTZ aug-cc-pVTZ/C TightSCF
|  3> %maxcore 3000
|  4> 
|  5> 
|  6> * xyz -1 1
|  7> C -1.3937728853  0.775496776 -1.0303842102
|  8> C -2.327959178  1.4074316259 -1.841807247
|  9> H -3.2412088884  1.7807496848 -1.3843747062
| 10> C -2.1155089337  1.5336484391 -3.2160297347
| 11> H -2.8666962858  2.0233412456 -3.8287330188
| 12> C -0.9450870096  1.0284294345 -3.7960826419
| 13> N -0.669828155  1.163537076 -5.1721336736
| 14> C -0.0061935045  0.3911929928 -2.9710210118
| 15> H  0.9081370061 -0.0020606566 -3.4145613317
| 16> C -0.2288709071  0.2673094461 -1.604141501
| 17> H  0.488645543 -0.2356382837 -0.9618238646
| 18> S -1.6811029425  0.667321009  0.7659659706
| 19> O -0.7921317893 -0.4596964531  1.1576698326
| 20> O -1.2843291597  2.0059780974  1.24525654
| 21> N -3.2125442702  0.4280581851  0.9946330008
| 22> H -3.3622102276 -0.5776824011  0.8874024772
| 23> C -1.7614733052  1.4644370916 -6.0741428547
| 24> H -0.0782853407  0.4139557983 -5.5089955897
| 25> H -2.1090108995  2.490182489 -5.9134493815
| 26> H -2.6257237445  0.7902908986 -5.9548620862
| 27> H -1.3970651227  1.3961145046 -7.1025129678
| 28> *
| 29> 
| 30>                          ****END OF INPUT****
================================================================================

                       ****************************
                       * Single Point Calculation *
                       ****************************

---------------------------------
CARTESIAN COORDINATES (ANGSTROEM)
---------------------------------
  C     -1.393773    0.775497   -1.030384
  C     -2.327959    1.407432   -1.841807
  H     -3.241209    1.780750   -1.384375
  C     -2.115509    1.533648   -3.216030
  H     -2.866696    2.023341   -3.828733
  C     -0.945087    1.028429   -3.796083
  N     -0.669828    1.163537   -5.172134
  C     -0.006194    0.391193   -2.971021
  H      0.908137   -0.002061   -3.414561
  C     -0.228871    0.267309   -1.604142
  H      0.488646   -0.235638   -0.961824
  S     -1.681103    0.667321    0.765966
  O     -0.792132   -0.459696    1.157670
  O     -1.284329    2.005978    1.245257
  N     -3.212544    0.428058    0.994633
  H     -3.362210   -0.577682    0.887402
  C     -1.761473    1.464437   -6.074143
  H     -0.078285    0.413956   -5.508996
  H     -2.109011    2.490182   -5.913449
  H     -2.625724    0.790291   -5.954862
  H     -1.397065    1.396115   -7.102513

----------------------------
CARTESIAN COORDINATES (A.U.)
----------------------------
  NO LB      ZA    FRAG     MASS         X           Y           Z
   0 C     6.0000    0    12.011   -2.633849    1.465477   -1.947144
   1 C     6.0000    0    12.011   -4.399205    2.659660   -3.480511
   2 H     1.0000    0     1.008   -6.124997    3.365129   -2.616089
   3 C     6.0000    0    12.011   -3.997733    2.898176   -6.077415
   4 H     1.0000    0     1.008   -5.417271    3.823561   -7.235257
   5 C     6.0000    0    12.011   -1.785956    1.943450   -7.173557
   6 N     7.0000    0    14.007   -1.265792    2.198766   -9.773916
   7 C     6.0000    0    12.011   -0.011704    0.739248   -5.614416
   8 H     1.0000    0     1.008    1.716130   -0.003894   -6.452586
   9 C     6.0000    0    12.011   -0.432503    0.505142   -3.031388
  10 H     1.0000    0     1.008    0.923406   -0.445292   -1.817584
  11 S    16.0000    0    32.060   -3.176824    1.261054    1.447466
  12 O     8.0000    0    15.999   -1.496912   -0.868700    2.187679
  13 O     8.0000    0    15.999   -2.427030    3.790749    2.353194
  14 N     7.0000    0    14.007   -6.070829    0.808913    1.879584
  15 H     1.0000    0     1.008   -6.353657   -1.091662    1.676948
  16 C     6.0000    0    12.011   -3.328702    2.767385  -11.478466
  17 H     1.0000    0     1.008   -0.147938    0.782263  -10.410493
  18 H     1.0000    0     1.008   -3.985453    4.705763  -11.174800
  19 H     1.0000    0     1.008   -4.961899    1.493433  -11.253059
  20 H     1.0000    0     1.008   -2.640070    2.638274  -13.421804

--------------------------------
INTERNAL COORDINATES (ANGSTROEM)
--------------------------------
 C      0   0   0     0.000000000000     0.00000000     0.00000000
 C      1   0   0     1.389407437952     0.00000000     0.00000000
 H      2   1   0     1.087490660203   118.36698335     0.00000000
 C      2   1   3     1.396264028018   120.90374888   181.46025887
 H      4   2   1     1.086041802621   119.39137711   179.38741243
 C      4   2   1     1.400569562062   120.14316250   359.58519609
 N      6   4   2     1.409800678703   122.19710233   181.73101367
 C      6   4   2     1.402967565560   118.65510461     0.42320274
 H      8   6   4     1.089668174610   119.08335601   180.16584501
 C      8   6   4     1.390428694977   120.75819175   359.75346035
 H     10   8   6     1.086442921237   121.10960187   179.25140097
 S      1   2   3     1.822398016460   119.77850409   356.89962854
 O     12   1   2     1.487907922758   102.13742615   159.64056211
 O     12   1   2     1.476195002348   102.93425404   280.43946396
 N     12   1   2     1.566795407763   107.88048795    37.53902558
 H     15  12   1     1.022454111795   106.13981123    83.26217450
 C      7   6   4     1.447705258722   118.74017346   341.41495512
 H      7   6   4     1.012556637205   111.58245350   207.64921998
 H     17   7   6     1.094878254450   110.03711581    70.11384629
 H     17   7   6     1.102556036263   113.36456308   309.12680033
 H     17   7   6     1.093163477658   108.77039473   187.75609121

---------------------------
INTERNAL COORDINATES (A.U.)
---------------------------
 C      0   0   0     0.000000000000     0.00000000     0.00000000
 C      1   0   0     2.625599546163     0.00000000     0.00000000
 H      2   1   0     2.055059520981   118.36698335     0.00000000
 C      2   1   3     2.638556623600   120.90374888   181.46025887
 H      4   2   1     2.052321576943   119.39137711   179.38741243
 C      4   2   1     2.646692903803   120.14316250   359.58519609
 N      6   4   2     2.664137186164   122.19710233   181.73101367
 C      6   4   2     2.651224473682   118.65510461     0.42320274
 H      8   6   4     2.059174426862   119.08335601   180.16584501
 C      8   6   4     2.627529442253   120.75819175   359.75346035
 H     10   8   6     2.053079581275   121.10960187   179.25140097
 S      1   2   3     3.443833158110   119.77850409   356.89962854
 O     12   1   2     2.811738486504   102.13742615   159.64056211
 O     12   1   2     2.789604274701   102.93425404   280.43946396
 N     12   1   2     2.960814228558   107.88048795    37.53902558
 H     15  12   1     1.932158255794   106.13981123    83.26217450
 C      7   6   4     2.735766461623   118.74017346   341.41495512
 H      7   6   4     1.913454739401   111.58245350   207.64921998
 H     17   7   6     2.069020050897   110.03711581    70.11384629
 H     17   7   6     2.083528955839   113.36456308   309.12680033
 H     17   7   6     2.065779592378   108.77039473   187.75609121

---------------------
BASIS SET INFORMATION
---------------------
There are 5 groups of distinct atoms

 Group   1 Type C   : 19s6p3d2f contracted to 5s4p3d2f pattern {88111/3111/111/11}
 Group   2 Type H   : 6s3p2d contracted to 4s3p2d pattern {3111/111/11}
 Group   3 Type N   : 19s6p3d2f contracted to 5s4p3d2f pattern {88111/3111/111/11}
 Group   4 Type S   : 42s17p3d2f contracted to 6s5p3d2f pattern {131313111/77111/111/11}
 Group   5 Type O   : 19s6p3d2f contracted to 5s4p3d2f pattern {88111/3111/111/11}

Atom   0C    basis set group =>   1
Atom   1C    basis set group =>   1
Atom   2H    basis set group =>   2
Atom   3C    basis set group =>   1
Atom   4H    basis set group =>   2
Atom   5C    basis set group =>   1
Atom   6N    basis set group =>   3
Atom   7C    basis set group =>   1
Atom   8H    basis set group =>   2
Atom   9C    basis set group =>   1
Atom  10H    basis set group =>   2
Atom  11S    basis set group =>   4
Atom  12O    basis set group =>   5
Atom  13O    basis set group =>   5
Atom  14N    basis set group =>   3
Atom  15H    basis set group =>   2
Atom  16C    basis set group =>   1
Atom  17H    basis set group =>   2
Atom  18H    basis set group =>   2
Atom  19H    basis set group =>   2
Atom  20H    basis set group =>   2
---------------------------------
AUXILIARY/J BASIS SET INFORMATION
---------------------------------
There are 5 groups of distinct atoms

 Group   1 Type C   : 12s5p4d2f1g contracted to 6s4p3d1f1g pattern {711111/2111/211/2/1}
 Group   2 Type H   : 5s2p1d contracted to 3s1p1d pattern {311/2/1}
 Group   3 Type N   : 12s5p4d2f1g contracted to 6s4p3d1f1g pattern {711111/2111/211/2/1}
 Group   4 Type S   : 14s5p5d2f1g contracted to 8s4p3d1f1g pattern {71111111/2111/311/2/1}
 Group   5 Type O   : 12s5p4d2f1g contracted to 6s4p3d1f1g pattern {711111/2111/211/2/1}

Atom   0C    basis set group =>   1
Atom   1C    basis set group =>   1
Atom   2H    basis set group =>   2
Atom   3C    basis set group =>   1
Atom   4H    basis set group =>   2
Atom   5C    basis set group =>   1
Atom   6N    basis set group =>   3
Atom   7C    basis set group =>   1
Atom   8H    basis set group =>   2
Atom   9C    basis set group =>   1
Atom  10H    basis set group =>   2
Atom  11S    basis set group =>   4
Atom  12O    basis set group =>   5
Atom  13O    basis set group =>   5
Atom  14N    basis set group =>   3
Atom  15H    basis set group =>   2
Atom  16C    basis set group =>   1
Atom  17H    basis set group =>   2
Atom  18H    basis set group =>   2
Atom  19H    basis set group =>   2
Atom  20H    basis set group =>   2
---------------------------------
AUXILIARY/C BASIS SET INFORMATION
---------------------------------
There are 5 groups of distinct atoms

 Group   1 Type C   : 9s7p6d4f2g contracted to 9s7p6d4f2g pattern {111111111/1111111/111111/1111/11}
 Group   2 Type H   : 5s4p3d2f contracted to 5s4p3d2f pattern {11111/1111/111/11}
 Group   3 Type N   : 9s7p6d4f2g contracted to 9s7p6d4f2g pattern {111111111/1111111/111111/1111/11}
 Group   4 Type S   : 11s9p8d6f3g contracted to 11s9p8d6f3g pattern {11111111111/111111111/11111111/111111/111}
 Group   5 Type O   : 9s7p6d4f2g contracted to 9s7p6d4f2g pattern {111111111/1111111/111111/1111/11}

Atom   0C    basis set group =>   1
Atom   1C    basis set group =>   1
Atom   2H    basis set group =>   2
Atom   3C    basis set group =>   1
Atom   4H    basis set group =>   2
Atom   5C    basis set group =>   1
Atom   6N    basis set group =>   3
Atom   7C    basis set group =>   1
Atom   8H    basis set group =>   2
Atom   9C    basis set group =>   1
Atom  10H    basis set group =>   2
Atom  11S    basis set group =>   4
Atom  12O    basis set group =>   5
Atom  13O    basis set group =>   5
Atom  14N    basis set group =>   3
Atom  15H    basis set group =>   2
Atom  16C    basis set group =>   1
Atom  17H    basis set group =>   2
Atom  18H    basis set group =>   2
Atom  19H    basis set group =>   2
Atom  20H    basis set group =>   2


           ************************************************************
           *        Program running with 8 parallel MPI-processes     *
           *              working on a common directory               *
           ************************************************************
------------------------------------------------------------------------------
                           ORCA GTO INTEGRAL CALCULATION
                           -- RI-GTO INTEGRALS CHOSEN --
------------------------------------------------------------------------------
------------------------------------------------------------------------------
                   ___                                                        
                  /   \      - P O W E R E D   B Y -                         
                 /     \                                                     
                 |  |  |   _    _      __       _____    __    __             
                 |  |  |  | |  | |    /  \     |  _  \  |  |  /  |          
                  \  \/   | |  | |   /    \    | | | |  |  | /  /          
                 / \  \   | |__| |  /  /\  \   | |_| |  |  |/  /          
                |  |  |   |  __  | /  /__\  \  |    /   |      \           
                |  |  |   | |  | | |   __   |  |    \   |  |\   \          
                \     /   | |  | | |  |  |  |  | |\  \  |  | \   \       
                 \___/    |_|  |_| |__|  |__|  |_| \__\ |__|  \__/        
                                                                              
                      - O R C A' S   B I G   F R I E N D -                    
                                      &                                       
                       - I N T E G R A L  F E E D E R -                       
                                                                              
 v1 FN, 2020, v2 2021                                                         
------------------------------------------------------------------------------


Reading SHARK input file A.10.avtz.SHARKINP.tmp ... ok
----------------------
SHARK INTEGRAL PACKAGE
----------------------

Number of atoms                             ...     21
Number of basis functions                   ...    854
Number of shells                            ...    332
Maximum angular momentum                    ...      3
Integral batch strategy                     ... SHARK/LIBINT Hybrid
RI-J (if used) integral strategy            ... SPLIT-RIJ (Revised 2003 algorithm where possible)
Printlevel                                  ...      1
Contraction scheme used                     ... PARTIAL GENERAL contraction
Coulomb Range Separation                    ... NOT USED
Exchange Range Separation                   ... NOT USED
Finite Nucleus Model                        ... NOT USED
Auxiliary Coulomb fitting basis             ... AVAILABLE
   # of basis functions in Aux-J            ...    689
   # of shells in Aux-J                     ...    227
   Maximum angular momentum in Aux-J        ...      4
Auxiliary J/K fitting basis                 ... NOT available
Auxiliary Correlation fitting basis         ... AVAILABLE
   # of basis functions in Aux-C            ...   1727
   # of shells in Aux-C                     ...    471
   Maximum angular momentum in Aux-C        ...      4
Auxiliary 'external' fitting basis          ... NOT available
Integral threshold                          ...     2.500000e-11
Primitive cut-off                           ...     2.500000e-12
Primitive pair pre-selection threshold      ...     2.500000e-12

Calculating pre-screening integrals         ... done (  0.1 sec) Dimension = 332
Calculating pre-screening integrals (ORCA)  ... done (  0.2 sec) Dimension = 251
Organizing shell pair data                  ... done (  0.4 sec)
Shell pair information
Total number of shell pairs                 ...     55278
Shell pairs after pre-screening             ...     42029
Total number of primitive shell pairs       ...     69438
Primitive shell pairs kept                  ...     49036
          la=0 lb=0:   9312 shell pairs
          la=1 lb=0:  10935 shell pairs
          la=1 lb=1:   2932 shell pairs
          la=2 lb=0:   7274 shell pairs
          la=2 lb=1:   3823 shell pairs
          la=2 lb=2:   1306 shell pairs
          la=3 lb=0:   3307 shell pairs
          la=3 lb=1:   1718 shell pairs
          la=3 lb=2:   1149 shell pairs
          la=3 lb=3:    273 shell pairs

Calculating one electron integrals          ... done (  0.1 sec)
Calculating RI/J V-Matrix + Cholesky decomp.... done (  0.1 sec)
Calculating RI/C V-Matrix + Cholesky decomp.... done (  0.2 sec)
Calculating Nuclear repulsion               ... done (  0.0 sec) ENN=    804.720798683077 Eh

SHARK setup successfully completed in   1.4 seconds

Maximum memory used throughout the entire GTOINT-calculation: 80.4 MB


           ************************************************************
           *        Program running with 8 parallel MPI-processes     *
           *              working on a common directory               *
           ************************************************************
-------------------------------------------------------------------------------
                                 ORCA SCF
-------------------------------------------------------------------------------

------------
SCF SETTINGS
------------
Hamiltonian:
 Density Functional     Method          .... DFT(GTOs)
 Exchange Functional    Exchange        .... PBE
   PBE kappa parameter   XKappa         ....  0.804000
   PBE mue parameter    XMuePBE         ....  0.219520
 Correlation Functional Correlation     .... P86
 LDA part of GGA corr.  LDAOpt          .... VWN-5
 Gradients option       PostSCFGGA      .... off
 Hybrid DFT is turned on
   Fraction HF Exchange ScalHFX         ....  0.700000
   Scaling of DF-GGA-X  ScalDFX         ....  0.300000
   Scaling of DF-GGA-C  ScalDFC         ....  0.430000
   Scaling of DF-LDA-C  ScalLDAC        ....  0.430000
   Perturbative correction              ....  1.000000
   Density functional embedding theory  .... OFF
   NL short-range parameter             .... 14.200000
 RI-approximation to the Coulomb term is turned on
   Number of AuxJ basis functions       .... 689
   RIJ-COSX (HFX calculated with COS-X)).... on


General Settings:
 Integral files         IntName         .... A.10.avtz
 Hartree-Fock type      HFTyp           .... RHF
 Total Charge           Charge          ....   -1
 Multiplicity           Mult            ....    1
 Number of Electrons    NEL             ....   98
 Basis Dimension        Dim             ....  763
 Nuclear Repulsion      ENuc            ....    804.7207986831 Eh

Convergence Acceleration:
 DIIS                   CNVDIIS         .... on
   Start iteration      DIISMaxIt       ....    12
   Startup error        DIISStart       ....  0.200000
   # of expansion vecs  DIISMaxEq       ....     5
   Bias factor          DIISBfac        ....   1.050
   Max. coefficient     DIISMaxC        ....  10.000
 Trust-Rad. Augm. Hess. CNVTRAH         .... auto
   Auto Start mean grad. ratio tolernc. ....  1.125000
   Auto Start start iteration           ....    20
   Auto Start num. interpolation iter.  ....    10
   Max. Number of Micro iterations      ....    16
   Max. Number of Macro iterations      .... Maxiter - #DIIS iter
   Number of Davidson start vectors     ....     2
   Converg. threshold I  (grad. norm)   ....   1.000e-05
   Converg. threshold II (energy diff.) ....   1.000e-08
   Grad. Scal. Fac. for Micro threshold ....   0.100
   Minimum threshold for Micro iter.    ....   0.010
   NR start threshold (gradient norm)   ....   0.001
   Initial trust radius                 ....   0.400
   Minimum AH scaling param. (alpha)    ....   1.000
   Maximum AH scaling param. (alpha)    .... 1000.000
   Orbital update algorithm             .... Taylor
   White noise on init. David. guess    .... on
   Maximum white noise                  ....   0.010
   Quad. conv. algorithm                .... NR
 SOSCF                  CNVSOSCF        .... on
   Start iteration      SOSCFMaxIt      ....   150
   Startup grad/error   SOSCFStart      ....  0.003300
 Level Shifting         CNVShift        .... on
   Level shift para.    LevelShift      ....    0.2500
   Turn off err/grad.   ShiftErr        ....    0.0010
 Zerner damping         CNVZerner       .... off
 Static damping         CNVDamp         .... on
   Fraction old density DampFac         ....    0.7000
   Max. Damping (<1)    DampMax         ....    0.9800
   Min. Damping (>=0)   DampMin         ....    0.0000
   Turn off err/grad.   DampErr         ....    0.1000
 Fernandez-Rico         CNVRico         .... off

SCF Procedure:
 Maximum # iterations   MaxIter         ....   125
 SCF integral mode      SCFMode         .... Direct
   Integral package                     .... SHARK and LIBINT hybrid scheme
 Reset frequency        DirectResetFreq ....    20
 Integral Threshold     Thresh          ....  2.500e-11 Eh
 Primitive CutOff       TCut            ....  2.500e-12 Eh

Convergence Tolerance:
 Convergence Check Mode ConvCheckMode   .... Total+1el-Energy
 Convergence forced     ConvForced      .... 0
 Energy Change          TolE            ....  1.000e-08 Eh
 1-El. energy change                    ....  1.000e-05 Eh
 Orbital Gradient       TolG            ....  1.000e-05
 Orbital Rotation angle TolX            ....  1.000e-05
 DIIS Error             TolErr          ....  5.000e-07


Diagonalization of the overlap matrix:
Smallest eigenvalue                        ... 4.758e-07
Time for diagonalization                   ...    0.096 sec
Threshold for overlap eigenvalues          ... 1.000e-08
Number of eigenvalues below threshold      ... 0
Time for construction of square roots      ...    0.052 sec
Total time needed                          ...    0.152 sec

Time for model grid setup =    0.144 sec

------------------------------
INITIAL GUESS: MODEL POTENTIAL
------------------------------
Loading Hartree-Fock densities                     ... done
Calculating cut-offs                               ... done
Initializing the effective Hamiltonian             ... done
Setting up the integral package (SHARK)            ... done
Starting the Coulomb interaction                   ... done (   0.4 sec)
Reading the grid                                   ... done
Mapping shells                                     ... done
Starting the XC term evaluation                    ... done (   0.4 sec)
  promolecular density results
     # of electrons  =     96.996624833
     EX              =    -92.804583630
     EC              =     -0.014330911
     EX+EC           =    -92.818914541
Transforming the Hamiltonian                       ... done (   0.0 sec)
Diagonalizing the Hamiltonian                      ... done (   0.1 sec)
Back transforming the eigenvectors                 ... done (   0.0 sec)
Now organizing SCF variables                       ... done
                      ------------------
                      INITIAL GUESS DONE (   1.1 sec)
                      ------------------
-------------------
DFT GRID GENERATION
-------------------

General Integration Accuracy     IntAcc      ... 4.388
Radial Grid Type                 RadialGrid  ... OptM3 with GC (2021)
Angular Grid (max. ang.)         AngularGrid ... 4 (Lebedev-302)
Angular grid pruning method      GridPruning ... 4 (adaptive)
Weight generation scheme         WeightScheme... Becke
Basis function cutoff            BFCut       ... 1.0000e-11
Integration weight cutoff        WCut        ... 1.0000e-14
Angular grids for H and He will be reduced by one unit
Partially contracted basis set               ... off
Rotationally invariant grid construction     ... off

Total number of grid points                  ...   107301
Total number of batches                      ...     1686
Average number of points per batch           ...       63
Average number of grid points per atom       ...     5110
Time for grid setup =    0.783 sec

--------------------
COSX GRID GENERATION
--------------------

GRIDX 1
-------
General Integration Accuracy     IntAcc      ... 3.816
Radial Grid Type                 RadialGrid  ... OptM3 with GC (2021)
Angular Grid (max. ang.)         AngularGrid ... 1 (Lebedev-50)
Angular grid pruning method      GridPruning ... 4 (adaptive)
Weight generation scheme         WeightScheme... Becke
Basis function cutoff            BFCut       ... 1.0000e-11
Integration weight cutoff        WCut        ... 1.0000e-14
Angular grids for H and He will be reduced by one unit
Partially contracted basis set               ... on
Rotationally invariant grid construction     ... off

Total number of grid points                  ...    13387
Total number of batches                      ...      219
Average number of points per batch           ...       61
Average number of grid points per atom       ...      637
UseSFitting                                  ... on

GRIDX 2
-------
General Integration Accuracy     IntAcc      ... 4.020
Radial Grid Type                 RadialGrid  ... OptM3 with GC (2021)
Angular Grid (max. ang.)         AngularGrid ... 2 (Lebedev-110)
Angular grid pruning method      GridPruning ... 4 (adaptive)
Weight generation scheme         WeightScheme... Becke
Basis function cutoff            BFCut       ... 1.0000e-11
Integration weight cutoff        WCut        ... 1.0000e-14
Angular grids for H and He will be reduced by one unit
Partially contracted basis set               ... on
Rotationally invariant grid construction     ... off

Total number of grid points                  ...    32657
Total number of batches                      ...      523
Average number of points per batch           ...       62
Average number of grid points per atom       ...     1555
UseSFitting                                  ... on

GRIDX 3
-------
General Integration Accuracy     IntAcc      ... 4.338
Radial Grid Type                 RadialGrid  ... OptM3 with GC (2021)
Angular Grid (max. ang.)         AngularGrid ... 3 (Lebedev-194)
Angular grid pruning method      GridPruning ... 4 (adaptive)
Weight generation scheme         WeightScheme... Becke
Basis function cutoff            BFCut       ... 1.0000e-11
Integration weight cutoff        WCut        ... 1.0000e-14
Angular grids for H and He will be reduced by one unit
Partially contracted basis set               ... on
Rotationally invariant grid construction     ... off

Total number of grid points                  ...    72892
Total number of batches                      ...     1151
Average number of points per batch           ...       63
Average number of grid points per atom       ...     3471
UseSFitting                                  ... on

Time for X-Grid setup             =    1.378 sec

 re-compute Schwartz prescreening matrix in partically contracted basis (1) ...done (   0.091 sec)
--------------
SCF ITERATIONS
--------------
ITER       Energy         Delta-E        Max-DP      RMS-DP      [F,P]     Damp
               ***  Starting incremental Fock matrix formation  ***
  0   -927.6357554815   0.000000000000 0.17845694  0.00197262  0.3340029 0.7000
  1   -927.8415511382  -0.205795656730 0.14498356  0.00160846  0.1833563 0.7000
                               ***Turning on DIIS***
  2   -927.9449282857  -0.103377147467 0.33411640  0.00346456  0.0839896 0.0000
  3   -928.1182556821  -0.173327396363 0.10141778  0.00090208  0.0790474 0.0000
  4   -928.1426405303  -0.024384848200 0.03048198  0.00025282  0.0061485 0.0000
  5   -928.1433660683  -0.000725537980 0.00824350  0.00011109  0.0059982 0.0000
                      *** Initiating the SOSCF procedure ***
                           *** Shutting down DIIS ***
                      *** Re-Reading the Fockian *** 
                      *** Removing any level shift *** 
ITER      Energy       Delta-E        Grad      Rot      Max-DP    RMS-DP
  6   -928.14355049  -0.0001844174  0.000493  0.000493  0.011944  0.000094
               *** Restarting incremental Fock matrix formation ***
  7   -928.14357729  -0.0000268078  0.000179  0.000472  0.046370  0.000612
  8   -928.14358065  -0.0000033592  0.000103  0.000148  0.011133  0.000149
  9   -928.14358322  -0.0000025667  0.000020  0.000054  0.008115  0.000101
 10   -928.14358338  -0.0000001608  0.000010  0.000012  0.004194  0.000047
 11   -928.14358341  -0.0000000307  0.000004  0.000010  0.014649  0.000107
 12   -928.14358341  -0.0000000012  0.000003  0.000007  0.004488  0.000048
                  ***Gradient check signals convergence***
              ***Rediagonalizing the Fockian in SOSCF/NRSCF***

               *****************************************************
               *                     SUCCESS                       *
               *           SCF CONVERGED AFTER  13 CYCLES          *
               *****************************************************

Old exchange energy                            =    -66.206313244 Eh
New exchange energy                            =    -66.206388326 Eh
Exchange energy change after final integration =     -0.000075081 Eh
Total energy after final integration           =   -928.143658491 Eh
Final COS-X integration done in                =    22.712 sec

----------------
TOTAL SCF ENERGY
----------------

Total Energy       :         -928.14365849 Eh          -25256.07294 eV

Components:
Nuclear Repulsion  :          804.72079868 Eh           21897.56618 eV
Electronic Energy  :        -1732.86445717 Eh          -47153.63912 eV
One Electron Energy:        -2885.08577185 Eh          -78507.17508 eV
Two Electron Energy:         1152.22131468 Eh           31353.53596 eV
Max COSX asymmetry :            0.00001750 Eh               0.00048 eV

Virial components:
Potential Energy   :        -1853.62966859 Eh          -50439.82759 eV
Kinetic Energy     :          925.48601010 Eh           25183.75465 eV
Virial Ratio       :            2.00287162


DFT components:
N(Alpha)           :       49.000104347709 electrons
N(Beta)            :       49.000104347709 electrons
N(Total)           :       98.000208695419 electrons
E(X)               :      -28.268681973375 Eh       
E(C)               :       -1.620341434461 Eh       
E(XC)              :      -29.889023407836 Eh       
DFET-embed. en.    :        0.000000000000 Eh       

---------------
SCF CONVERGENCE
---------------

  Last Energy change         ...    2.3746e-09  Tolerance :   1.0000e-08
  Last MAX-Density change    ...    4.2188e-15  Tolerance :   1.0000e-07
  Last RMS-Density change    ...    1.9202e-17  Tolerance :   5.0000e-09
  Last Orbital Gradient      ...    1.2712e-06  Tolerance :   1.0000e-05
  Last Orbital Rotation      ...    2.2279e-06  Tolerance :   1.0000e-05

             **** THE GBW FILE WAS UPDATED (A.10.avtz.gbw) ****
             **** DENSITY A.10.avtz.scfp WAS UPDATED ****
             **** ENERGY FILE WAS UPDATED (A.10.avtz.en.tmp) ****
             **** THE GBW FILE WAS UPDATED (A.10.avtz.gbw) ****
             **** DENSITY A.10.avtz.scfp WAS UPDATED ****
----------------
ORBITAL ENERGIES
----------------

  NO   OCC          E(Eh)            E(eV) 
   0   2.0000     -90.831024     -2471.6378 
   1   2.0000     -19.813480      -539.1522 
   2   2.0000     -19.810411      -539.0687 
   3   2.0000     -15.011062      -408.4718 
   4   2.0000     -14.872578      -404.7034 
   5   2.0000     -10.776728      -293.2497 
   6   2.0000     -10.769450      -293.0516 
   7   2.0000     -10.719691      -291.6976 
   8   2.0000     -10.719351      -291.6884 
   9   2.0000     -10.717789      -291.6459 
  10   2.0000     -10.717086      -291.6267 
  11   2.0000     -10.708342      -291.3888 
  12   2.0000      -8.572858      -233.2793 
  13   2.0000      -6.358988      -173.0369 
  14   2.0000      -6.357398      -172.9936 
  15   2.0000      -6.356521      -172.9697 
  16   2.0000      -1.120677       -30.4952 
  17   2.0000      -1.035981       -28.1905 
  18   2.0000      -1.004528       -27.3346 
  19   2.0000      -0.918914       -25.0049 
  20   2.0000      -0.866041       -23.5662 
  21   2.0000      -0.808622       -22.0037 
  22   2.0000      -0.801145       -21.8003 
  23   2.0000      -0.740176       -20.1412 
  24   2.0000      -0.643626       -17.5140 
  25   2.0000      -0.625866       -17.0307 
  26   2.0000      -0.561922       -15.2907 
  27   2.0000      -0.540045       -14.6954 
  28   2.0000      -0.500434       -13.6175 
  29   2.0000      -0.466827       -12.7030 
  30   2.0000      -0.462244       -12.5783 
  31   2.0000      -0.443740       -12.0748 
  32   2.0000      -0.428606       -11.6630 
  33   2.0000      -0.412042       -11.2122 
  34   2.0000      -0.405056       -11.0221 
  35   2.0000      -0.397826       -10.8254 
  36   2.0000      -0.379181       -10.3180 
  37   2.0000      -0.370157       -10.0725 
  38   2.0000      -0.352016        -9.5788 
  39   2.0000      -0.319872        -8.7041 
  40   2.0000      -0.284532        -7.7425 
  41   2.0000      -0.278416        -7.5761 
  42   2.0000      -0.245759        -6.6874 
  43   2.0000      -0.230392        -6.2693 
  44   2.0000      -0.209183        -5.6922 
  45   2.0000      -0.197870        -5.3843 
  46   2.0000      -0.182527        -4.9668 
  47   2.0000      -0.167325        -4.5531 
  48   2.0000      -0.141730        -3.8567 
  49   0.0000       0.076707         2.0873 
  50   0.0000       0.092385         2.5139 
  51   0.0000       0.102286         2.7834 
  52   0.0000       0.105334         2.8663 
  53   0.0000       0.119333         3.2472 
  54   0.0000       0.129665         3.5284 
  55   0.0000       0.134380         3.6567 
  56   0.0000       0.139273         3.7898 
  57   0.0000       0.147996         4.0272 
  58   0.0000       0.152959         4.1622 
  59   0.0000       0.161385         4.3915 
  60   0.0000       0.168945         4.5972 
  61   0.0000       0.171439         4.6651 
  62   0.0000       0.174493         4.7482 
  63   0.0000       0.180838         4.9209 
  64   0.0000       0.185358         5.0439 
  65   0.0000       0.192004         5.2247 
  66   0.0000       0.195768         5.3271 
  67   0.0000       0.196703         5.3526 
  68   0.0000       0.202079         5.4988 
  69   0.0000       0.204693         5.5700 
  70   0.0000       0.206875         5.6294 
  71   0.0000       0.216228         5.8839 
  72   0.0000       0.219832         5.9819 
  73   0.0000       0.222472         6.0538 
  74   0.0000       0.224646         6.1129 
  75   0.0000       0.231931         6.3112 
  76   0.0000       0.235139         6.3985 
  77   0.0000       0.237830         6.4717 
  78   0.0000       0.242561         6.6004 
  79   0.0000       0.252569         6.8727 
  80   0.0000       0.253452         6.8968 
  81   0.0000       0.256723         6.9858 
  82   0.0000       0.258140         7.0244 
  83   0.0000       0.264621         7.2007 
  84   0.0000       0.274837         7.4787 
  85   0.0000       0.280466         7.6319 
  86   0.0000       0.282936         7.6991 
  87   0.0000       0.288472         7.8497 
  88   0.0000       0.296717         8.0741 
  89   0.0000       0.302452         8.2301 
  90   0.0000       0.308657         8.3990 
  91   0.0000       0.314495         8.5578 
  92   0.0000       0.321764         8.7556 
  93   0.0000       0.325911         8.8685 
  94   0.0000       0.327178         8.9030 
  95   0.0000       0.334616         9.1054 
  96   0.0000       0.337479         9.1833 
  97   0.0000       0.345037         9.3889 
  98   0.0000       0.348868         9.4932 
  99   0.0000       0.352701         9.5975 
 100   0.0000       0.356961         9.7134 
 101   0.0000       0.359936         9.7943 
 102   0.0000       0.361135         9.8270 
 103   0.0000       0.366694         9.9782 
 104   0.0000       0.372508        10.1365 
 105   0.0000       0.374296        10.1851 
 106   0.0000       0.375444        10.2164 
 107   0.0000       0.382544        10.4095 
 108   0.0000       0.384850        10.4723 
 109   0.0000       0.385749        10.4968 
 110   0.0000       0.393966        10.7204 
 111   0.0000       0.398352        10.8397 
 112   0.0000       0.399594        10.8735 
 113   0.0000       0.405950        11.0465 
 114   0.0000       0.408432        11.1140 
 115   0.0000       0.413392        11.2490 
 116   0.0000       0.415849        11.3158 
 117   0.0000       0.418591        11.3905 
 118   0.0000       0.426710        11.6114 
 119   0.0000       0.429223        11.6797 
 120   0.0000       0.431353        11.7377 
 121   0.0000       0.435040        11.8380 
 122   0.0000       0.441175        12.0050 
 123   0.0000       0.444235        12.0882 
 124   0.0000       0.445429        12.1207 
 125   0.0000       0.450824        12.2675 
 126   0.0000       0.453943        12.3524 
 127   0.0000       0.456098        12.4110 
 128   0.0000       0.463616        12.6156 
 129   0.0000       0.468034        12.7358 
 130   0.0000       0.477565        12.9952 
 131   0.0000       0.478849        13.0301 
 132   0.0000       0.481712        13.1080 
 133   0.0000       0.485583        13.2134 
 134   0.0000       0.496028        13.4976 
 135   0.0000       0.499592        13.5946 
 136   0.0000       0.501231        13.6392 
 137   0.0000       0.510660        13.8958 
 138   0.0000       0.512720        13.9518 
 139   0.0000       0.518830        14.1181 
 140   0.0000       0.524071        14.2607 
 141   0.0000       0.524885        14.2828 
 142   0.0000       0.534063        14.5326 
 143   0.0000       0.535864        14.5816 
 144   0.0000       0.540790        14.7156 
 145   0.0000       0.542280        14.7562 
 146   0.0000       0.546780        14.8786 
 147   0.0000       0.550184        14.9713 
 148   0.0000       0.552309        15.0291 
 149   0.0000       0.554181        15.0800 
 150   0.0000       0.562749        15.3132 
 151   0.0000       0.567267        15.4361 
 152   0.0000       0.570583        15.5264 
 153   0.0000       0.576791        15.6953 
 154   0.0000       0.581399        15.8207 
 155   0.0000       0.588101        16.0030 
 156   0.0000       0.591278        16.0895 
 157   0.0000       0.595071        16.1927 
 158   0.0000       0.597875        16.2690 
 159   0.0000       0.602973        16.4077 
 160   0.0000       0.608914        16.5694 
 161   0.0000       0.613660        16.6985 
 162   0.0000       0.618143        16.8205 
 163   0.0000       0.620343        16.8804 
 164   0.0000       0.625199        17.0125 
 165   0.0000       0.632124        17.2010 
 166   0.0000       0.636067        17.3083 
 167   0.0000       0.639929        17.4134 
 168   0.0000       0.646567        17.5940 
 169   0.0000       0.649378        17.6705 
 170   0.0000       0.654794        17.8179 
 171   0.0000       0.655553        17.8385 
 172   0.0000       0.666079        18.1249 
 173   0.0000       0.668709        18.1965 
 174   0.0000       0.674552        18.3555 
 175   0.0000       0.683631        18.6025 
 176   0.0000       0.689604        18.7651 
 177   0.0000       0.697169        18.9709 
 178   0.0000       0.700812        19.0701 
 179   0.0000       0.711646        19.3649 
 180   0.0000       0.714722        19.4486 
 181   0.0000       0.719008        19.5652 
 182   0.0000       0.723250        19.6806 
 183   0.0000       0.738585        20.0979 
 184   0.0000       0.745062        20.2742 
 185   0.0000       0.747385        20.3374 
 186   0.0000       0.760296        20.6887 
 187   0.0000       0.761429        20.7195 
 188   0.0000       0.767293        20.8791 
 189   0.0000       0.774841        21.0845 
 190   0.0000       0.778508        21.1843 
 191   0.0000       0.785717        21.3805 
 192   0.0000       0.794127        21.6093 
 193   0.0000       0.798574        21.7303 
 194   0.0000       0.802590        21.8396 
 195   0.0000       0.807911        21.9844 
 196   0.0000       0.813315        22.1314 
 197   0.0000       0.819798        22.3078 
 198   0.0000       0.828759        22.5517 
 199   0.0000       0.829636        22.5755 
 200   0.0000       0.839575        22.8460 
 201   0.0000       0.843755        22.9597 
 202   0.0000       0.849644        23.1200 
 203   0.0000       0.855118        23.2690 
 204   0.0000       0.860187        23.4069 
 205   0.0000       0.862860        23.4796 
 206   0.0000       0.872457        23.7408 
 207   0.0000       0.877618        23.8812 
 208   0.0000       0.891293        24.2533 
 209   0.0000       0.894519        24.3411 
 210   0.0000       0.902678        24.5631 
 211   0.0000       0.907682        24.6993 
 212   0.0000       0.910833        24.7850 
 213   0.0000       0.920843        25.0574 
 214   0.0000       0.922432        25.1006 
 215   0.0000       0.928550        25.2671 
 216   0.0000       0.935100        25.4454 
 217   0.0000       0.940220        25.5847 
 218   0.0000       0.945037        25.7158 
 219   0.0000       0.948783        25.8177 
 220   0.0000       0.951064        25.8798 
 221   0.0000       0.958638        26.0859 
 222   0.0000       0.964880        26.2557 
 223   0.0000       0.973582        26.4925 
 224   0.0000       0.974175        26.5087 
 225   0.0000       0.980049        26.6685 
 226   0.0000       0.986374        26.8406 
 227   0.0000       0.994376        27.0584 
 228   0.0000       0.997463        27.1423 
 229   0.0000       1.005296        27.3555 
 230   0.0000       1.006571        27.3902 
 231   0.0000       1.010191        27.4887 
 232   0.0000       1.015443        27.6316 
 233   0.0000       1.020356        27.7653 
 234   0.0000       1.030195        28.0330 
 235   0.0000       1.032561        28.0974 
 236   0.0000       1.036134        28.1946 
 237   0.0000       1.042190        28.3594 
 238   0.0000       1.049142        28.5486 
 239   0.0000       1.054765        28.7016 
 240   0.0000       1.057222        28.7685 
 241   0.0000       1.060289        28.8519 
 242   0.0000       1.065200        28.9856 
 243   0.0000       1.074581        29.2408 
 244   0.0000       1.075569        29.2677 
 245   0.0000       1.077259        29.3137 
 246   0.0000       1.083939        29.4955 
 247   0.0000       1.096966        29.8500 
 248   0.0000       1.102982        30.0137 
 249   0.0000       1.106529        30.1102 
 250   0.0000       1.110573        30.2202 
 251   0.0000       1.113056        30.2878 
 252   0.0000       1.115817        30.3629 
 253   0.0000       1.124619        30.6024 
 254   0.0000       1.130339        30.7581 
 255   0.0000       1.134227        30.8639 
 256   0.0000       1.136306        30.9205 
 257   0.0000       1.142181        31.0803 
 258   0.0000       1.144661        31.1478 
 259   0.0000       1.154194        31.4072 
 260   0.0000       1.158707        31.5300 
 261   0.0000       1.166703        31.7476 
 262   0.0000       1.168925        31.8081 
 263   0.0000       1.172383        31.9022 
 264   0.0000       1.175436        31.9852 
 265   0.0000       1.183191        32.1963 
 266   0.0000       1.190073        32.3835 
 267   0.0000       1.192600        32.4523 
 268   0.0000       1.195485        32.5308 
 269   0.0000       1.200540        32.6683 
 270   0.0000       1.208570        32.8869 
 271   0.0000       1.211623        32.9699 
 272   0.0000       1.212807        33.0022 
 273   0.0000       1.224458        33.3192 
 274   0.0000       1.226455        33.3735 
 275   0.0000       1.228338        33.4248 
 276   0.0000       1.235651        33.6238 
 277   0.0000       1.242283        33.8042 
 278   0.0000       1.249816        34.0092 
 279   0.0000       1.253939        34.1214 
 280   0.0000       1.258029        34.2327 
 281   0.0000       1.264266        34.4024 
 282   0.0000       1.271535        34.6002 
 283   0.0000       1.282675        34.9034 
 284   0.0000       1.284978        34.9660 
 285   0.0000       1.291598        35.1462 
 286   0.0000       1.293306        35.1926 
 287   0.0000       1.295121        35.2420 
 288   0.0000       1.310143        35.6508 
 289   0.0000       1.314142        35.7596 
 290   0.0000       1.316570        35.8257 
 291   0.0000       1.326175        36.0871 
 292   0.0000       1.329372        36.1741 
 293   0.0000       1.338650        36.4265 
 294   0.0000       1.344727        36.5919 
 295   0.0000       1.347811        36.6758 
 296   0.0000       1.348442        36.6930 
 297   0.0000       1.364097        37.1190 
 298   0.0000       1.365702        37.1626 
 299   0.0000       1.372488        37.3473 
 300   0.0000       1.378401        37.5082 
 301   0.0000       1.383170        37.6380 
 302   0.0000       1.394232        37.9390 
 303   0.0000       1.395104        37.9627 
 304   0.0000       1.400661        38.1139 
 305   0.0000       1.412571        38.4380 
 306   0.0000       1.416142        38.5352 
 307   0.0000       1.424762        38.7697 
 308   0.0000       1.429600        38.9014 
 309   0.0000       1.437476        39.1157 
 310   0.0000       1.438790        39.1515 
 311   0.0000       1.445904        39.3451 
 312   0.0000       1.456222        39.6258 
 313   0.0000       1.465521        39.8789 
 314   0.0000       1.472247        40.0619 
 315   0.0000       1.476684        40.1826 
 316   0.0000       1.497166        40.7399 
 317   0.0000       1.501384        40.8547 
 318   0.0000       1.502981        40.8982 
 319   0.0000       1.514069        41.1999 
 320   0.0000       1.517419        41.2911 
 321   0.0000       1.523693        41.4618 
 322   0.0000       1.530452        41.6457 
 323   0.0000       1.537607        41.8404 
 324   0.0000       1.540276        41.9130 
 325   0.0000       1.554950        42.3123 
 326   0.0000       1.557444        42.3802 
 327   0.0000       1.564221        42.5646 
 328   0.0000       1.571134        42.7527 
 329   0.0000       1.582138        43.0522 
 330   0.0000       1.592118        43.3237 
 331   0.0000       1.596446        43.4415 
 332   0.0000       1.607964        43.7549 
 333   0.0000       1.609256        43.7901 
 334   0.0000       1.624510        44.2052 
 335   0.0000       1.627409        44.2841 
 336   0.0000       1.634353        44.4730 
 337   0.0000       1.647099        44.8198 
 338   0.0000       1.649690        44.8903 
 339   0.0000       1.656638        45.0794 
 340   0.0000       1.666523        45.3484 
 341   0.0000       1.672994        45.5245 
 342   0.0000       1.676020        45.6068 
 343   0.0000       1.686084        45.8807 
 344   0.0000       1.697390        46.1883 
 345   0.0000       1.704096        46.3708 
 346   0.0000       1.710774        46.5525 
 347   0.0000       1.721263        46.8380 
 348   0.0000       1.730870        47.0994 
 349   0.0000       1.735627        47.2288 
 350   0.0000       1.739537        47.3352 
 351   0.0000       1.749223        47.5988 
 352   0.0000       1.755638        47.7733 
 353   0.0000       1.765720        48.0477 
 354   0.0000       1.773226        48.2519 
 355   0.0000       1.780283        48.4440 
 356   0.0000       1.787713        48.6461 
 357   0.0000       1.803070        49.0640 
 358   0.0000       1.810706        49.2718 
 359   0.0000       1.817959        49.4692 
 360   0.0000       1.834120        49.9089 
 361   0.0000       1.844071        50.1797 
 362   0.0000       1.854488        50.4632 
 363   0.0000       1.858165        50.5633 
 364   0.0000       1.865808        50.7712 
 365   0.0000       1.870906        50.9099 
 366   0.0000       1.881687        51.2033 
 367   0.0000       1.885568        51.3089 
 368   0.0000       1.894133        51.5420 
 369   0.0000       1.901211        51.7346 
 370   0.0000       1.905411        51.8489 
 371   0.0000       1.921625        52.2901 
 372   0.0000       1.926771        52.4301 
 373   0.0000       1.934403        52.6378 
 374   0.0000       1.947566        52.9960 
 375   0.0000       1.952370        53.1267 
 376   0.0000       1.961315        53.3701 
 377   0.0000       1.978654        53.8419 
 378   0.0000       1.982507        53.9468 
 379   0.0000       1.988765        54.1171 
 380   0.0000       2.003458        54.5169 
 381   0.0000       2.010637        54.7122 
 382   0.0000       2.020611        54.9836 
 383   0.0000       2.028864        55.2082 
 384   0.0000       2.035293        55.3831 
 385   0.0000       2.047543        55.7165 
 386   0.0000       2.050818        55.8056 
 387   0.0000       2.059107        56.0311 
 388   0.0000       2.066319        56.2274 
 389   0.0000       2.071053        56.3562 
 390   0.0000       2.078293        56.5532 
 391   0.0000       2.095845        57.0308 
 392   0.0000       2.100157        57.1482 
 393   0.0000       2.115144        57.5560 
 394   0.0000       2.116920        57.6043 
 395   0.0000       2.128222        57.9119 
 396   0.0000       2.136058        58.1251 
 397   0.0000       2.139551        58.2201 
 398   0.0000       2.146146        58.3996 
 399   0.0000       2.156099        58.6704 
 400   0.0000       2.164974        58.9119 
 401   0.0000       2.177653        59.2569 
 402   0.0000       2.181246        59.3547 
 403   0.0000       2.191892        59.6444 
 404   0.0000       2.192932        59.6727 
 405   0.0000       2.203885        59.9708 
 406   0.0000       2.212738        60.2117 
 407   0.0000       2.220010        60.4096 
 408   0.0000       2.229707        60.6734 
 409   0.0000       2.238743        60.9193 
 410   0.0000       2.240231        60.9598 
 411   0.0000       2.248837        61.1940 
 412   0.0000       2.260735        61.5177 
 413   0.0000       2.266406        61.6720 
 414   0.0000       2.272595        61.8404 
 415   0.0000       2.288046        62.2609 
 416   0.0000       2.299575        62.5746 
 417   0.0000       2.318549        63.0909 
 418   0.0000       2.321804        63.1795 
 419   0.0000       2.332919        63.4820 
 420   0.0000       2.345315        63.8193 
 421   0.0000       2.347268        63.8724 
 422   0.0000       2.350822        63.9691 
 423   0.0000       2.354833        64.0783 
 424   0.0000       2.371537        64.5328 
 425   0.0000       2.387206        64.9592 
 426   0.0000       2.401228        65.3407 
 427   0.0000       2.408640        65.5424 
 428   0.0000       2.412649        65.6515 
 429   0.0000       2.420704        65.8707 
 430   0.0000       2.431643        66.1684 
 431   0.0000       2.440362        66.4056 
 432   0.0000       2.446900        66.5835 
 433   0.0000       2.458970        66.9120 
 434   0.0000       2.463184        67.0266 
 435   0.0000       2.478219        67.4358 
 436   0.0000       2.482652        67.5564 
 437   0.0000       2.485507        67.6341 
 438   0.0000       2.501825        68.0781 
 439   0.0000       2.505773        68.1855 
 440   0.0000       2.513999        68.4094 
 441   0.0000       2.519288        68.5533 
 442   0.0000       2.539751        69.1101 
 443   0.0000       2.547830        69.3300 
 444   0.0000       2.559558        69.6491 
 445   0.0000       2.566376        69.8346 
 446   0.0000       2.574239        70.0486 
 447   0.0000       2.583699        70.3060 
 448   0.0000       2.604007        70.8586 
 449   0.0000       2.609418        71.0059 
 450   0.0000       2.618392        71.2501 
 451   0.0000       2.633595        71.6638 
 452   0.0000       2.639051        71.8122 
 453   0.0000       2.652555        72.1797 
 454   0.0000       2.659090        72.3575 
 455   0.0000       2.663536        72.4785 
 456   0.0000       2.678528        72.8865 
 457   0.0000       2.686809        73.1118 
 458   0.0000       2.700252        73.4776 
 459   0.0000       2.704649        73.5972 
 460   0.0000       2.711080        73.7723 
 461   0.0000       2.726273        74.1857 
 462   0.0000       2.730710        74.3064 
 463   0.0000       2.767561        75.3092 
 464   0.0000       2.784974        75.7830 
 465   0.0000       2.792859        75.9976 
 466   0.0000       2.804978        76.3273 
 467   0.0000       2.819712        76.7283 
 468   0.0000       2.836124        77.1749 
 469   0.0000       2.842392        77.3454 
 470   0.0000       2.861980        77.8784 
 471   0.0000       2.870321        78.1054 
 472   0.0000       2.880496        78.3823 
 473   0.0000       2.900722        78.9327 
 474   0.0000       2.913136        79.2704 
 475   0.0000       2.930462        79.7419 
 476   0.0000       2.934821        79.8606 
 477   0.0000       2.955935        80.4351 
 478   0.0000       2.966716        80.7285 
 479   0.0000       2.993191        81.4489 
 480   0.0000       2.999226        81.6131 
 481   0.0000       3.004690        81.7618 
 482   0.0000       3.029345        82.4327 
 483   0.0000       3.043363        82.8141 
 484   0.0000       3.064772        83.3967 
 485   0.0000       3.077545        83.7443 
 486   0.0000       3.104743        84.4844 
 487   0.0000       3.114634        84.7535 
 488   0.0000       3.130990        85.1986 
 489   0.0000       3.156559        85.8943 
 490   0.0000       3.184798        86.6628 
 491   0.0000       3.201904        87.1282 
 492   0.0000       3.227141        87.8150 
 493   0.0000       3.247160        88.3597 
 494   0.0000       3.254867        88.5694 
 495   0.0000       3.266983        88.8991 
 496   0.0000       3.298190        89.7483 
 497   0.0000       3.304704        89.9256 
 498   0.0000       3.312237        90.1305 
 499   0.0000       3.346904        91.0739 
 500   0.0000       3.357055        91.3501 
 501   0.0000       3.367965        91.6470 
 502   0.0000       3.369336        91.6843 
 503   0.0000       3.400752        92.5392 
 504   0.0000       3.402439        92.5851 
 505   0.0000       3.420069        93.0648 
 506   0.0000       3.430747        93.3554 
 507   0.0000       3.439972        93.6064 
 508   0.0000       3.450517        93.8934 
 509   0.0000       3.460987        94.1783 
 510   0.0000       3.464657        94.2781 
 511   0.0000       3.479640        94.6858 
 512   0.0000       3.492419        95.0336 
 513   0.0000       3.505079        95.3780 
 514   0.0000       3.516514        95.6892 
 515   0.0000       3.533406        96.1489 
 516   0.0000       3.548017        96.5464 
 517   0.0000       3.553218        96.6880 
 518   0.0000       3.569651        97.1351 
 519   0.0000       3.577620        97.3520 
 520   0.0000       3.580405        97.4278 
 521   0.0000       3.582680        97.4897 
 522   0.0000       3.606796        98.1459 
 523   0.0000       3.614417        98.3533 
 524   0.0000       3.624324        98.6229 
 525   0.0000       3.627897        98.7201 
 526   0.0000       3.643717        99.1506 
 527   0.0000       3.660088        99.5961 
 528   0.0000       3.662926        99.6733 
 529   0.0000       3.678850       100.1066 
 530   0.0000       3.684779       100.2679 
 531   0.0000       3.696456       100.5857 
 532   0.0000       3.712020       101.0092 
 533   0.0000       3.715980       101.1170 
 534   0.0000       3.730341       101.5078 
 535   0.0000       3.743115       101.8553 
 536   0.0000       3.753779       102.1455 
 537   0.0000       3.768852       102.5557 
 538   0.0000       3.782683       102.9320 
 539   0.0000       3.791646       103.1759 
 540   0.0000       3.795889       103.2914 
 541   0.0000       3.814342       103.7935 
 542   0.0000       3.823697       104.0481 
 543   0.0000       3.837281       104.4177 
 544   0.0000       3.841048       104.5202 
 545   0.0000       3.861163       105.0676 
 546   0.0000       3.867116       105.2296 
 547   0.0000       3.878884       105.5498 
 548   0.0000       3.886320       105.7521 
 549   0.0000       3.888083       105.8001 
 550   0.0000       3.899219       106.1031 
 551   0.0000       3.912728       106.4707 
 552   0.0000       3.934524       107.0639 
 553   0.0000       3.939858       107.2090 
 554   0.0000       3.950245       107.4916 
 555   0.0000       3.958801       107.7245 
 556   0.0000       3.964919       107.8909 
 557   0.0000       3.974304       108.1463 
 558   0.0000       3.985302       108.4456 
 559   0.0000       3.990365       108.5834 
 560   0.0000       3.995473       108.7224 
 561   0.0000       4.017337       109.3173 
 562   0.0000       4.035759       109.8186 
 563   0.0000       4.045925       110.0952 
 564   0.0000       4.062383       110.5431 
 565   0.0000       4.075666       110.9045 
 566   0.0000       4.096081       111.4600 
 567   0.0000       4.109005       111.8117 
 568   0.0000       4.124996       112.2468 
 569   0.0000       4.128434       112.3404 
 570   0.0000       4.140580       112.6709 
 571   0.0000       4.149159       112.9043 
 572   0.0000       4.163215       113.2868 
 573   0.0000       4.178691       113.7080 
 574   0.0000       4.180732       113.7635 
 575   0.0000       4.197212       114.2119 
 576   0.0000       4.205575       114.4395 
 577   0.0000       4.221767       114.8801 
 578   0.0000       4.226638       115.0127 
 579   0.0000       4.238304       115.3301 
 580   0.0000       4.249134       115.6248 
 581   0.0000       4.256351       115.8212 
 582   0.0000       4.278103       116.4131 
 583   0.0000       4.285966       116.6271 
 584   0.0000       4.309794       117.2755 
 585   0.0000       4.313287       117.3705 
 586   0.0000       4.327251       117.7505 
 587   0.0000       4.337487       118.0290 
 588   0.0000       4.347444       118.3000 
 589   0.0000       4.362698       118.7151 
 590   0.0000       4.372199       118.9736 
 591   0.0000       4.379022       119.1592 
 592   0.0000       4.385035       119.3229 
 593   0.0000       4.398119       119.6789 
 594   0.0000       4.409584       119.9909 
 595   0.0000       4.421713       120.3209 
 596   0.0000       4.426676       120.4560 
 597   0.0000       4.439693       120.8102 
 598   0.0000       4.451583       121.1337 
 599   0.0000       4.457985       121.3080 
 600   0.0000       4.473356       121.7262 
 601   0.0000       4.481593       121.9504 
 602   0.0000       4.488109       122.1277 
 603   0.0000       4.492373       122.2437 
 604   0.0000       4.518490       122.9544 
 605   0.0000       4.525356       123.1412 
 606   0.0000       4.535403       123.4146 
 607   0.0000       4.563913       124.1904 
 608   0.0000       4.580710       124.6475 
 609   0.0000       4.596721       125.0831 
 610   0.0000       4.607573       125.3784 
 611   0.0000       4.621443       125.7559 
 612   0.0000       4.641682       126.3066 
 613   0.0000       4.667807       127.0175 
 614   0.0000       4.672513       127.1456 
 615   0.0000       4.696655       127.8025 
 616   0.0000       4.707939       128.1095 
 617   0.0000       4.719459       128.4230 
 618   0.0000       4.722290       128.5000 
 619   0.0000       4.739971       128.9812 
 620   0.0000       4.746192       129.1504 
 621   0.0000       4.759875       129.5228 
 622   0.0000       4.775704       129.9535 
 623   0.0000       4.784001       130.1793 
 624   0.0000       4.807344       130.8145 
 625   0.0000       4.809094       130.8621 
 626   0.0000       4.829415       131.4151 
 627   0.0000       4.833791       131.5341 
 628   0.0000       4.861690       132.2933 
 629   0.0000       4.868179       132.4699 
 630   0.0000       4.887350       132.9916 
 631   0.0000       4.901060       133.3646 
 632   0.0000       4.908428       133.5651 
 633   0.0000       4.913434       133.7013 
 634   0.0000       4.944372       134.5432 
 635   0.0000       4.948219       134.6479 
 636   0.0000       4.964426       135.0889 
 637   0.0000       4.970610       135.2572 
 638   0.0000       4.977150       135.4351 
 639   0.0000       4.993153       135.8706 
 640   0.0000       5.009349       136.3113 
 641   0.0000       5.016076       136.4944 
 642   0.0000       5.036468       137.0493 
 643   0.0000       5.053631       137.5163 
 644   0.0000       5.071837       138.0117 
 645   0.0000       5.073884       138.0674 
 646   0.0000       5.077637       138.1695 
 647   0.0000       5.087131       138.4279 
 648   0.0000       5.102420       138.8439 
 649   0.0000       5.127741       139.5329 
 650   0.0000       5.146035       140.0307 
 651   0.0000       5.158022       140.3569 
 652   0.0000       5.172383       140.7477 
 653   0.0000       5.190719       141.2466 
 654   0.0000       5.199104       141.4748 
 655   0.0000       5.224628       142.1694 
 656   0.0000       5.225176       142.1843 
 657   0.0000       5.247559       142.7933 
 658   0.0000       5.251643       142.9045 
 659   0.0000       5.278602       143.6381 
 660   0.0000       5.298089       144.1683 
 661   0.0000       5.319273       144.7448 
 662   0.0000       5.330801       145.0585 
 663   0.0000       5.338802       145.2762 
 664   0.0000       5.358208       145.8043 
 665   0.0000       5.371535       146.1669 
 666   0.0000       5.386416       146.5718 
 667   0.0000       5.398180       146.8919 
 668   0.0000       5.411317       147.2494 
 669   0.0000       5.421924       147.5381 
 670   0.0000       5.440870       148.0536 
 671   0.0000       5.454142       148.4148 
 672   0.0000       5.468374       148.8020 
 673   0.0000       5.489319       149.3720 
 674   0.0000       5.497897       149.6054 
 675   0.0000       5.514505       150.0573 
 676   0.0000       5.544791       150.8814 
 677   0.0000       5.564295       151.4122 
 678   0.0000       5.589593       152.1005 
 679   0.0000       5.601309       152.4194 
 680   0.0000       5.615672       152.8102 
 681   0.0000       5.627700       153.1375 
 682   0.0000       5.632025       153.2552 
 683   0.0000       5.670056       154.2901 
 684   0.0000       5.721873       155.7001 
 685   0.0000       5.758232       156.6895 
 686   0.0000       5.765409       156.8847 
 687   0.0000       5.792995       157.6354 
 688   0.0000       5.812215       158.1584 
 689   0.0000       5.837005       158.8330 
 690   0.0000       5.850703       159.2057 
 691   0.0000       5.859775       159.4526 
 692   0.0000       5.877059       159.9229 
 693   0.0000       5.915066       160.9571 
 694   0.0000       5.990163       163.0006 
 695   0.0000       6.020440       163.8245 
 696   0.0000       6.027047       164.0043 
 697   0.0000       6.052519       164.6974 
 698   0.0000       6.068704       165.1378 
 699   0.0000       6.077448       165.3758 
 700   0.0000       6.105958       166.1516 
 701   0.0000       6.122126       166.5915 
 702   0.0000       6.124972       166.6690 
 703   0.0000       6.151179       167.3821 
 704   0.0000       6.207365       168.9110 
 705   0.0000       6.217870       169.1968 
 706   0.0000       6.276330       170.7876 
 707   0.0000       6.301428       171.4706 
 708   0.0000       6.328842       172.2166 
 709   0.0000       6.370507       173.3503 
 710   0.0000       6.397634       174.0885 
 711   0.0000       6.473095       176.1419 
 712   0.0000       6.489275       176.5822 
 713   0.0000       6.506915       177.0622 
 714   0.0000       6.570422       178.7903 
 715   0.0000       6.640245       180.6903 
 716   0.0000       6.721626       182.9047 
 717   0.0000       6.725747       183.0169 
 718   0.0000       6.741228       183.4381 
 719   0.0000       6.763501       184.0442 
 720   0.0000       6.772622       184.2924 
 721   0.0000       6.788780       184.7321 
 722   0.0000       6.831144       185.8849 
 723   0.0000       6.841138       186.1568 
 724   0.0000       6.872266       187.0039 
 725   0.0000       6.896900       187.6742 
 726   0.0000       6.906235       187.9282 
 727   0.0000       6.920566       188.3182 
 728   0.0000       6.953579       189.2165 
 729   0.0000       6.960088       189.3936 
 730   0.0000       6.999131       190.4561 
 731   0.0000       7.011529       190.7934 
 732   0.0000       7.032379       191.3607 
 733   0.0000       7.042329       191.6315 
 734   0.0000       7.070291       192.3924 
 735   0.0000       7.082921       192.7361 
 736   0.0000       7.113535       193.5691 
 737   0.0000       7.157690       194.7707 
 738   0.0000       7.176212       195.2746 
 739   0.0000       7.234851       196.8703 
 740   0.0000       7.289420       198.3552 
 741   0.0000       7.308156       198.8650 
 742   0.0000       7.334224       199.5744 
 743   0.0000       7.348419       199.9607 
 744   0.0000       7.536074       205.0670 
 745   0.0000       7.562650       205.7902 
 746   0.0000       7.606774       206.9908 
 747   0.0000       7.677868       208.9254 
 748   0.0000       7.679438       208.9681 
 749   0.0000       7.767898       211.3753 
 750   0.0000       7.799299       212.2297 
 751   0.0000      12.645089       344.0904 
 752   0.0000      12.923010       351.6530 
 753   0.0000      13.959110       379.8467 
 754   0.0000      14.557213       396.1219 
 755   0.0000      15.963889       434.3995 
 756   0.0000      16.195676       440.7068 
 757   0.0000      17.326591       471.4805 
 758   0.0000      18.254858       496.7399 
 759   0.0000      18.815426       511.9938 
 760   0.0000      19.509789       530.8884 
 761   0.0000      19.848751       540.1120 
 762   0.0000      20.203837       549.7744 

                    ********************************
                    * MULLIKEN POPULATION ANALYSIS *
                    ********************************

-----------------------
MULLIKEN ATOMIC CHARGES
-----------------------
   0 C :    1.085950
   1 C :   -0.741444
   2 H :    0.433443
   3 C :   -0.625844
   4 H :    0.326045
   5 C :    1.148577
   6 N :   -0.585824
   7 C :   -0.862230
   8 H :    0.450289
   9 C :   -0.856520
  10 H :    0.364514
  11 S :    1.877369
  12 O :   -1.019444
  13 O :   -1.017660
  14 N :   -1.060535
  15 H :    0.087893
  16 C :   -1.045654
  17 H :    0.000825
  18 H :    0.356483
  19 H :    0.306333
  20 H :    0.377433
Sum of atomic charges:   -1.0000000

--------------------------------
MULLIKEN REDUCED ORBITAL CHARGES
--------------------------------
  0 C s       :     2.767805  s :     2.767805
      pz      :     0.587919  p :     2.126904
      px      :     0.669898
      py      :     0.869087
      dz2     :    -0.052308  d :     0.074832
      dxz     :     0.164539
      dyz     :    -0.027250
      dx2y2   :    -0.006969
      dxy     :    -0.003180
      f0      :    -0.002435  f :    -0.055491
      f+1     :    -0.031165
      f-1     :    -0.008265
      f+2     :    -0.006611
      f-2     :    -0.005560
      f+3     :     0.000385
      f-3     :    -0.001840
  1 C s       :     3.974150  s :     3.974150
      pz      :     0.846183  p :     2.801820
      px      :     1.011771
      py      :     0.943866
      dz2     :    -0.075237  d :    -0.015336
      dxz     :     0.060432
      dyz     :     0.008418
      dx2y2   :    -0.001293
      dxy     :    -0.007657
      f0      :    -0.003781  f :    -0.019190
      f+1     :    -0.014002
      f-1     :    -0.003691
      f+2     :    -0.000428
      f-2     :     0.001773
      f+3     :     0.001274
      f-3     :    -0.000335
  2 H s       :     0.516103  s :     0.516103
      pz      :     0.034339  p :     0.047208
      px      :    -0.003390
      py      :     0.016259
      dz2     :     0.001294  d :     0.003247
      dxz     :     0.000015
      dyz     :     0.000456
      dx2y2   :     0.000827
      dxy     :     0.000654
  3 C s       :     3.729658  s :     3.729658
      pz      :     0.569507  p :     2.747116
      px      :     1.087695
      py      :     1.089913
      dz2     :     0.016736  d :     0.173292
      dxz     :     0.089538
      dyz     :     0.035739
      dx2y2   :     0.010710
      dxy     :     0.020568
      f0      :     0.000274  f :    -0.024221
      f+1     :    -0.019129
      f-1     :    -0.004691
      f+2     :    -0.002607
      f-2     :     0.002746
      f+3     :     0.001162
[...]
      py      :     0.103339
      dz2     :     0.065378  d :     0.230429
      dxz     :     0.043014
      dyz     :     0.034786
      dx2y2   :     0.045345
      dxy     :     0.041905
  5 C s       :     2.447450  s :     2.447450
      pz      :     0.747451  p :     2.200563
      px      :     0.803309
      py      :     0.649802
      dz2     :     0.257536  d :     1.026471
      dxz     :     0.265324
      dyz     :     0.201320
      dx2y2   :     0.145447
      dxy     :     0.156843
      f0      :     0.080431  f :     0.576767
      f+1     :     0.172339
      f-1     :     0.108254
      f+2     :     0.066887
      f-2     :     0.064862
      f+3     :     0.035576
      f-3     :     0.048419
  6 N s       :     2.637651  s :     2.637651
      pz      :     0.940526  p :     2.988446
      px      :     0.988649
      py      :     1.059271
      dz2     :     0.183982  d :     0.622755
      dxz     :     0.170471
      dyz     :     0.121010
      dx2y2   :     0.050942
      dxy     :     0.096349
      f0      :     0.046059  f :     0.218770
      f+1     :     0.061815
      f-1     :     0.032504
      f+2     :     0.023140
      f-2     :     0.028320
      f+3     :     0.014957
      f-3     :     0.011976
  7 C s       :     2.476022  s :     2.476022
      pz      :     0.837366  p :     2.293397
      px      :     0.775095
      py      :     0.680937
      dz2     :     0.195840  d :     0.691294
      dxz     :     0.199189
      dyz     :     0.145875
      dx2y2   :     0.075102
      dxy     :     0.075288
      f0      :     0.063222  f :     0.340770
      f+1     :     0.092106
      f-1     :     0.066370
      f+2     :     0.037105
      f-2     :     0.036560
      f+3     :     0.020840
      f-3     :     0.024567
  8 H s       :     0.664782  s :     0.664782
      pz      :     0.089864  p :     0.305432
      px      :     0.120214
      py      :     0.095354
      dz2     :     0.040982  d :     0.217176
      dxz     :     0.055046
      dyz     :     0.021288
      dx2y2   :     0.047834
      dxy     :     0.052026
  9 C s       :     2.486544  s :     2.486544
      pz      :     0.847203  p :     2.277208
      px      :     0.791087
      py      :     0.638918
      dz2     :     0.180439  d :     0.741492
      dxz     :     0.238080
      dyz     :     0.147676
      dx2y2   :     0.079183
      dxy     :     0.096114
      f0      :     0.057377  f :     0.352861
      f+1     :     0.106732
      f-1     :     0.062057
      f+2     :     0.034181
      f-2     :     0.030326
      f+3     :     0.032027
      f-3     :     0.030161
 10 H s       :     0.658208  s :     0.658208
      pz      :     0.118834  p :     0.319917
      px      :     0.108396
      py      :     0.092687
      dz2     :     0.066380  d :     0.232769
      dxz     :     0.046873
      dyz     :     0.035275
      dx2y2   :     0.041758
      dxy     :     0.042483
 11 S s       :     4.502204  s :     4.502204
      pz      :     2.663572  p :     8.113946
      px      :     2.735728
      py      :     2.714646
      dz2     :     0.483931  d :     2.286489
      dxz     :     0.360679
      dyz     :     0.378233
      dx2y2   :     0.553856
      dxy     :     0.509790
      f0      :     0.131088  f :     1.242377
      f+1     :     0.121570
      f-1     :     0.170860
      f+2     :     0.150759
      f-2     :     0.135439
      f+3     :     0.242925
      f-3     :     0.289737
 12 O s       :     3.329899  s :     3.329899
      pz      :     1.492917  p :     4.404839
      px      :     1.463630
      py      :     1.448293
      dz2     :     0.037703  d :     0.223947
      dxz     :     0.027420
      dyz     :     0.039669
      dx2y2   :     0.057439
      dxy     :     0.061716
      f0      :     0.005621  f :     0.066930
      f+1     :     0.006483
      f-1     :     0.009295
      f+2     :     0.004224
      f-2     :     0.011671
      f+3     :     0.015254
      f-3     :     0.014381
 13 O s       :     3.340752  s :     3.340752
      pz      :     1.484336  p :     4.400885
      px      :     1.497467
      py      :     1.419083
      dz2     :     0.038866  d :     0.222741
      dxz     :     0.011033
      dyz     :     0.056181
      dx2y2   :     0.060231
      dxy     :     0.056431
      f0      :     0.005939  f :     0.068806
      f+1     :     0.002196
      f-1     :     0.014187
      f+2     :     0.010985
      f-2     :     0.006754
      f+3     :     0.014109
      f-3     :     0.014635
 14 N s       :     2.914210  s :     2.914210
      pz      :     1.178369  p :     3.376417
      px      :     1.081632
      py      :     1.116415
      dz2     :     0.048086  d :     0.327119
      dxz     :     0.063746
      dyz     :     0.013444
      dx2y2   :     0.120755
      dxy     :     0.081089
      f0      :     0.008554  f :     0.112122
      f+1     :     0.019986
      f-1     :     0.005670
      f+2     :     0.017200
      f-2     :     0.004828
      f+3     :     0.025865
      f-3     :     0.030018
 15 H s       :     0.677510  s :     0.677510
      pz      :     0.175941  p :     0.564989
      px      :     0.147402
      py      :     0.241646
      dz2     :     0.034114  d :     0.351844
      dxz     :     0.007493
      dyz     :     0.105825
      dx2y2   :     0.093130
      dxy     :     0.111282
 16 C s       :     2.440942  s :     2.440942
      pz      :     0.732205  p :     2.215487
      px      :     0.714611
      py      :     0.768670
      dz2     :     0.189576  d :     0.651942
      dxz     :     0.124567
      dyz     :     0.046765
      dx2y2   :     0.117087
      dxy     :     0.173946
      f0      :     0.026662  f :     0.256203
      f+1     :     0.060261
      f-1     :     0.022294
      f+2     :     0.042321
      f-2     :     0.043311
      f+3     :     0.027515
      f-3     :     0.033839
 17 H s       :     0.587600  s :     0.587600
      pz      :     0.111685  p :     0.420106
      px      :     0.133189
      py      :     0.175232
      dz2     :     0.049176  d :     0.302434
      dxz     :     0.050620
      dyz     :     0.052197
      dx2y2   :     0.089368
      dxy     :     0.061073
 18 H s       :     0.633187  s :     0.633187
      pz      :     0.090671  p :     0.312608
      px      :     0.080570
      py      :     0.141367
      dz2     :     0.032446  d :     0.230583
      dxz     :     0.020710
      dyz     :     0.057720
      dx2y2   :     0.051966
      dxy     :     0.067740
 19 H s       :     0.638728  s :     0.638728
      pz      :     0.083055  p :     0.303205
      px      :     0.110975
      py      :     0.109175
      dz2     :     0.026761  d :     0.217912
      dxz     :     0.055976
      dyz     :     0.019263
      dx2y2   :     0.075064
      dxy     :     0.040848
 20 H s       :     0.646171  s :     0.646171
      pz      :     0.127488  p :     0.302214
      px      :     0.085709
      py      :     0.089018
      dz2     :     0.056031  d :     0.224476
      dxz     :     0.070604
      dyz     :     0.064579
      dx2y2   :     0.010481
      dxy     :     0.022781


                      *****************************
                      * MAYER POPULATION ANALYSIS *
                      *****************************

  NA   - Mulliken gross atomic population
  ZA   - Total nuclear charge
  QA   - Mulliken gross atomic charge
  VA   - Mayer's total valence
  BVA  - Mayer's bonded valence
  FA   - Mayer's free valence

  ATOM       NA         ZA         QA         VA         BVA        FA
  0 C      4.9140     6.0000     1.0860     2.8179     2.8179     0.0000
  1 C      6.7414     6.0000    -0.7414     2.5203     2.5203     0.0000
  2 H      0.5666     1.0000     0.4334     0.7464     0.7464     0.0000
  3 C      6.6258     6.0000    -0.6258     2.5968     2.5968     0.0000
  4 H      0.6740     1.0000     0.3260     0.8009     0.8009    -0.0000
  5 C      4.8514     6.0000     1.1486     2.1974     2.1974     0.0000
  6 N      7.5858     7.0000    -0.5858     2.4601     2.4601    -0.0000
  7 C      6.8622     6.0000    -0.8622     3.0450     3.0450    -0.0000
  8 H      0.5497     1.0000     0.4503     0.6816     0.6816    -0.0000
  9 C      6.8565     6.0000    -0.8565     2.8569     2.8569    -0.0000
 10 H      0.6355     1.0000     0.3645     0.9001     0.9001    -0.0000
 11 S     14.1226    16.0000     1.8774     4.6382     4.6382     0.0000
 12 O      9.0194     8.0000    -1.0194     1.3487     1.3487     0.0000
 13 O      9.0177     8.0000    -1.0177     1.4212     1.4212    -0.0000
 14 N      8.0605     7.0000    -1.0605     2.3793     2.3793    -0.0000
 15 H      0.9121     1.0000     0.0879     1.1275     1.1275    -0.0000
 16 C      7.0457     6.0000    -1.0457     3.6912     3.6912     0.0000
 17 H      0.9992     1.0000     0.0008     1.1516     1.1516    -0.0000
 18 H      0.6435     1.0000     0.3565     0.9496     0.9496     0.0000
 19 H      0.6937     1.0000     0.3063     1.0201     1.0201     0.0000
 20 H      0.6226     1.0000     0.3774     0.9202     0.9202     0.0000

  Mayer bond orders larger than 0.100000
B(  0-C ,  1-C ) :   0.9745 B(  0-C ,  9-C ) :   0.7348 B(  0-C , 11-S ) :   0.8665 
B(  0-C , 12-O ) :   0.2634 B(  0-C , 13-O ) :  -0.1476 B(  0-C , 14-N ) :   0.1068 
B(  1-C ,  2-H ) :   0.6894 B(  1-C ,  3-C ) :   1.1150 B(  1-C ,  5-C ) :  -0.2105 
B(  1-C , 14-N ) :  -0.1163 B(  3-C ,  4-H ) :   0.9153 B(  3-C ,  5-C ) :   0.9556 
B(  3-C ,  6-N ) :  -0.2366 B(  3-C ,  7-C ) :   0.1915 B(  3-C , 16-C ) :  -0.1412 
B(  5-C ,  6-N ) :   0.4672 B(  5-C ,  7-C ) :   0.9141 B(  6-N , 16-C ) :   1.0360 
B(  6-N , 17-H ) :   1.1400 B(  7-C ,  8-H ) :   0.7175 B(  7-C ,  9-C ) :   1.2338 
B(  9-C , 10-H ) :   0.8365 B(  9-C , 11-S ) :   0.1022 B(  9-C , 12-O ) :  -0.1886 
B( 11-S , 12-O ) :   1.1733 B( 11-S , 13-O ) :   1.2968 B( 11-S , 14-N ) :   1.2400 
B( 11-S , 15-H ) :   0.1172 B( 14-N , 15-H ) :   0.9608 B( 16-C , 18-H ) :   0.9069 
B( 16-C , 19-H ) :   0.9193 B( 16-C , 20-H ) :   0.8697 

-------
TIMINGS
-------

Total SCF time: 0 days 0 hours 2 min 40 sec 

Total time                  ....     160.580 sec
Sum of individual times     ....     158.785 sec  ( 98.9%)

Fock matrix formation       ....     152.622 sec  ( 95.0%)
  Split-RI-J                ....       9.246 sec  (  6.1% of F)
  Chain of spheres X        ....     123.086 sec  ( 80.6% of F)
  XC integration            ....      19.543 sec  ( 12.8% of F)
    Basis function eval.    ....       2.438 sec  ( 12.5% of XC)
    Density eval.           ....       5.294 sec  ( 27.1% of XC)
    XC-Functional eval.     ....       0.191 sec  (  1.0% of XC)
    XC-Potential eval.      ....       6.373 sec  ( 32.6% of XC)
Diagonalization             ....       1.110 sec  (  0.7%)
Density matrix formation    ....       0.106 sec  (  0.1%)
Population analysis         ....       0.120 sec  (  0.1%)
Initial guess               ....       0.994 sec  (  0.6%)
Orbital Transformation      ....       0.000 sec  (  0.0%)
Orbital Orthonormalization  ....       0.000 sec  (  0.0%)
DIIS solution               ....       0.572 sec  (  0.4%)
SOSCF solution              ....       0.957 sec  (  0.6%)
Grid generation             ....       2.305 sec  (  1.4%)

Maximum memory used throughout the entire SCF-calculation: 166.4 MB


           ************************************************************
           *        Program running with 8 parallel MPI-processes     *
           *              working on a common directory               *
           ************************************************************

------------------------------------------------------------------------------
                                ORCA  MP2 
------------------------------------------------------------------------------

Freezing NCore=32 chemical core electrons

   <<< Use J-auxbasis for calculation of Separable RI-J derivative contributions (Dim=689) >>> 


-------------
RI-MP2 ENERGY
-------------
Dimension of the basis                    ...  763
Memory devoted to MP2                     ... 3000 MB   
Data format for buffers                   ... DOUBLE
Compression type for matrix containers    ... UNCOMPRESSED
Scaling for aa/bb pairs                   ...   2.500e-01
Scaling for ab pairs                      ...   5.300e-01
Overall scaling of the MP2 energy         ...   1.000e+00
Calculating two index integrals           ... done (    0.045 sec)
Cholesky decomposition of V**-1           ... done (    0.282 sec)

-----------------
RI-TRANSFORMATION (AUX index driven)
-----------------

Dimension of the orbital-basis         ... 763
Dimension of the aux-basis             ... 1727
Transformation of internal/external MOs...   16-  48 to   49- 762
Number Format for Storage              ... Double (8 Byte)
Integral mode                          ... Direct

First Phase: integral generation and transformation of MO indices
  Aux angular momentum 0               ... done (    0.292 sec)
  Aux angular momentum 1               ... done (    0.527 sec)
  Aux angular momentum 2               ... done (    0.718 sec)
  Aux angular momentum 3               ... done (    0.705 sec)
  Aux angular momentum 4               ... done (    0.412 sec)
Closing buffer VIA ( 0.30 GB; CompressionRatio= 1.00)
  Phase 1 completed in     3.067 sec
Second Phase: sorting and transformation of aux index

IA-Transformation
Memory available                       ... 2920 MB 
Max. # MO pairs treated in a batch     ... 5    
# of internal orbitals                 ... 33
# batches for internal orbitals        ... 1
Closing buffer IAV ( 0.30 GB; CompressionRatio= 1.00)
(ia|v) transformation done in     0.570 sec

  Phase 2 completed in     0.675 sec
RI-Integral transformation completed in     3.746 sec
Opening buffers                              ... done

Starting loop over batches of integrals:

Operator 0  - window                       ... ( 16- 48)x( 49-762)
Operator 0  - Memory available             ...  3000 MB
Operator 0  - Memory needed per MO         ...   9.4 MB
Operator 0  - Number of orbitals per batch ... 5
Operator 0  - Number of batches            ... 1

OPERATOR  0   PASS   0:  MOs    16 ...   20 +   21 ...   25 +   26 ...   30 +   31 ...   35
                            +   36 ...   40 +   41 ...   45 +   46 ...   48
  Reading integrals       ... ok
  Internal MO  18
Time spent in pair loops =     0.525 sec
Deleting buffer (Ka|jb)[aa] ...done

-----------------------------------------------
 RI-MP2 CORRELATION ENERGY:     -1.166843435 Eh
-----------------------------------------------


-------
TIMINGS
-------

Total time                :    9.386 sec
Integral trafo            :    3.758 sec ( 40.0%)
I/O of integrals          :    0.018 sec (  0.2%)
K(i,j) Operators          :    0.410 sec (  4.4%)
T(i,j) pair energies      :    0.054 sec (  0.6%)
V-calculation             :    0.045 sec (  0.5%)
V**(-1/2)                 :    0.282 sec (  3.0%)
Gamma(ia|P)               :    0.000 sec (  0.0%)
Gamma-Trafo               :    0.000 sec (  0.0%)
D(virtual)                :    0.000 sec (  0.0%)
D(internal)               :    0.000 sec (  0.0%)
W(virtual)                :    0.000 sec (  0.0%)
W(internal)               :    0.000 sec (  0.0%)
L(virtual)                :    0.000 sec (  0.0%)
L(internal)               :    0.000 sec (  0.0%)
G(D)                      :    0.000 sec (  0.0%)
G(Z)                      :    0.000 sec (  0.0%)
Z-Vector Solution         :    0.000 sec (  0.0%)
3-Index Derivative        :    0.000 sec (  0.0%)
2-Index Derivative        :    0.000 sec (  0.0%)
Separable Gradient (RIJ)  :    0.000 sec (  0.0%)
Separable Gradient (COSX) :    0.000 sec (  0.0%)


---------------------------------------
MP2 TOTAL ENERGY:     -929.310501926 Eh
---------------------------------------

Maximum memory used throughout the entire MP2-calculation: 187.8 MB


-------------------------------------------------------------------------------
                          DFT DISPERSION CORRECTION                            
                                                                               
                              DFTD3 V3.1  Rev 1                                
                          USING Becke-Johnson damping                          
-------------------------------------------------------------------------------
The DSD-PBEP86 functional is recognized
Active option DFTDOPT                   ...         4   

molecular C6(AA) [au] = 5873.853155 


            DFT-D V3
 parameters
 s6 scaling factor         :     0.4180 
 a1 scaling factor         :     0.0000 
 s8 scaling factor         :     0.0000 
 a2 scaling factor         :     5.6500 
 ad hoc parameters k1-k3   :    16.0000     1.3333    -4.0000 

 Edisp/kcal,au: -9.425281215970  -0.015020140094 
 E6   /kcal   :  -9.425281216 
 E8   /kcal   :  -0.000000000 
 % E8         :   0.000000000 

-------------------------   ----------------
Dispersion correction           -0.015020140
-------------------------   ----------------


-------------------------   --------------------
FINAL SINGLE POINT ENERGY      -929.325522065719
-------------------------   --------------------


                            ***************************************
                            *     ORCA property calculations      *
                            ***************************************


  WARNING: The energy has been calculated at the MP2 level but the densities
           used in the property calculations are still SCF densities
           MP2 response densities have not been calculated 
           use %mp2 Density relaxed end
           or  %mp2 Density unrelaxed end

                                    ---------------------
                                    Active property flags
                                    ---------------------
   (+) Dipole Moment


------------------------------------------------------------------------------
                       ORCA ELECTRIC PROPERTIES CALCULATION
------------------------------------------------------------------------------

Dipole Moment Calculation                       ... on
Quadrupole Moment Calculation                   ... off
Polarizability Calculation                      ... off
GBWName                                         ... A.10.avtz.gbw
Electron density                                ... A.10.avtz.scfp
The origin for moment calculation is the CENTER OF MASS  = (-2.666318,  1.622833 -2.811715)

-------------
DIPOLE MOMENT
-------------
                                X             Y             Z
Electronic contribution:      1.93233      -0.70455      13.44571
Nuclear contribution   :     -1.47384       0.33101     -18.55963
                        -----------------------------------------
Total Dipole Moment    :      0.45850      -0.37353      -5.11391
                        -----------------------------------------
Magnitude (a.u.)       :      5.14799
Magnitude (Debye)      :     13.08516



--------------------
Rotational spectrum 
--------------------
 
Rotational constants in cm-1:     0.080193     0.013710     0.012656 
Rotational constants in MHz :  2404.119884   411.010739   379.422996 

 Dipole components along the rotational axes: 
x,y,z [a.u.] :    -5.074242    -0.397434     0.771983 
x,y,z [Debye]:   -12.897697    -1.010196     1.962225 

 

Timings for individual modules:

Sum of individual times         ...      175.812 sec (=   2.930 min)
GTO integral calculation        ...        3.065 sec (=   0.051 min)   1.7 %
SCF iterations                  ...      161.924 sec (=   2.699 min)  92.1 %
MP2 module                      ...       10.823 sec (=   0.180 min)   6.2 %
                             ****ORCA TERMINATED NORMALLY****
TOTAL RUN TIME: 0 days 0 hours 2 minutes 58 seconds 410 msec
