
                                 *****************
                                 * O   R   C   A *
                                 *****************

                                            #,                                       
                                            ###                                      
                                            ####                                     
                                            #####                                    
                                            ######                                   
                                           ########,                                 
                                     ,,################,,,,,                         
                               ,,#################################,,                 
                          ,,##########################################,,             
                       ,#########################################, ''#####,          
                    ,#############################################,,   '####,        
                  ,##################################################,,,,####,       
                ,###########''''           ''''###############################       
              ,#####''   ,,,,##########,,,,          '''####'''          '####       
            ,##' ,,,,###########################,,,                        '##       
           ' ,,###''''                  '''############,,,                           
         ,,##''                                '''############,,,,        ,,,,,,###''
      ,#''                                            '''#######################'''  
     '                                                          ''''####''''         
             ,#######,   #######,   ,#######,      ##                                
            ,#'     '#,  ##    ##  ,#'     '#,    #''#        ######   ,####,        
            ##       ##  ##   ,#'  ##            #'  '#       #        #'  '#        
            ##       ##  #######   ##           ,######,      #####,   #    #        
            '#,     ,#'  ##    ##  '#,     ,#' ,#      #,         ##   #,  ,#        
             '#######'   ##     ##  '#######'  #'      '#     #####' # '####'        



                  #######################################################
                  #                        -***-                        #
                  #          Department of theory and spectroscopy      #
                  #    Directorship and core code : Frank Neese         #
                  #        Max Planck Institute fuer Kohlenforschung    #
                  #                Kaiser Wilhelm Platz 1               #
                  #                 D-45470 Muelheim/Ruhr               #
                  #                      Germany                        #
                  #                                                     #
                  #                  All rights reserved                #
                  #                        -***-                        #
                  #######################################################


                         Program Version 5.0.3 -  RELEASE  -


 With contributions from (in alphabetic order):
   Daniel Aravena         : Magnetic Suceptibility
   Michael Atanasov       : Ab Initio Ligand Field Theory (pilot matlab implementation)
   Alexander A. Auer      : GIAO ZORA, VPT2 properties, NMR spectrum
   Ute Becker             : Parallelization
   Giovanni Bistoni       : ED, misc. LED, open-shell LED, HFLD
   Martin Brehm           : Molecular dynamics
   Dmytro Bykov           : SCF Hessian
   Vijay G. Chilkuri      : MRCI spin determinant printing, contributions to CSF-ICE
   Dipayan Datta          : RHF DLPNO-CCSD density
   Achintya Kumar Dutta   : EOM-CC, STEOM-CC
   Dmitry Ganyushin       : Spin-Orbit,Spin-Spin,Magnetic field MRCI
   Miquel Garcia          : C-PCM and meta-GGA Hessian, CC/C-PCM, Gaussian charge scheme
   Yang Guo               : DLPNO-NEVPT2, F12-NEVPT2, CIM, IAO-localization
   Andreas Hansen         : Spin unrestricted coupled pair/coupled cluster methods
   Benjamin Helmich-Paris : MC-RPA, TRAH-SCF, COSX integrals
   Lee Huntington         : MR-EOM, pCC
   Robert Izsak           : Overlap fitted RIJCOSX, COSX-SCS-MP3, EOM
   Marcus Kettner         : VPT2
   Christian Kollmar      : KDIIS, OOCD, Brueckner-CCSD(T), CCSD density, CASPT2, CASPT2-K
   Simone Kossmann        : Meta GGA functionals, TD-DFT gradient, OOMP2, MP2 Hessian
   Martin Krupicka        : Initial AUTO-CI
   Lucas Lang             : DCDCAS
   Marvin Lechner         : AUTO-CI (C++ implementation), FIC-MRCC
   Dagmar Lenk            : GEPOL surface, SMD
   Dimitrios Liakos       : Extrapolation schemes; Compound Job, initial MDCI parallelization
   Dimitrios Manganas     : Further ROCIS development; embedding schemes
   Dimitrios Pantazis     : SARC Basis sets
   Anastasios Papadopoulos: AUTO-CI, single reference methods and gradients
   Taras Petrenko         : DFT Hessian,TD-DFT gradient, ASA, ECA, R-Raman, ABS, FL, XAS/XES, NRVS
   Peter Pinski           : DLPNO-MP2, DLPNO-MP2 Gradient
   Christoph Reimann      : Effective Core Potentials
   Marius Retegan         : Local ZFS, SOC
   Christoph Riplinger    : Optimizer, TS searches, QM/MM, DLPNO-CCSD(T), (RO)-DLPNO pert. Triples
   Tobias Risthaus        : Range-separated hybrids, TD-DFT gradient, RPA, STAB
   Michael Roemelt        : Original ROCIS implementation
   Masaaki Saitow         : Open-shell DLPNO-CCSD energy and density
   Barbara Sandhoefer     : DKH picture change effects
   Avijit Sen             : IP-ROCIS
   Kantharuban Sivalingam : CASSCF convergence, NEVPT2, FIC-MRCI
   Bernardo de Souza      : ESD, SOC TD-DFT
   Georgi Stoychev        : AutoAux, RI-MP2 NMR, DLPNO-MP2 response
   Willem Van den Heuvel  : Paramagnetic NMR
   Boris Wezisla          : Elementary symmetry handling
   Frank Wennmohs         : Technical directorship


 We gratefully acknowledge several colleagues who have allowed us to
 interface, adapt or use parts of their codes:
   Stefan Grimme, W. Hujo, H. Kruse, P. Pracht,  : VdW corrections, initial TS optimization,
                  C. Bannwarth, S. Ehlert          DFT functionals, gCP, sTDA/sTD-DF
   Ed Valeev, F. Pavosevic, A. Kumar             : LibInt (2-el integral package), F12 methods
   Garnet Chan, S. Sharma, J. Yang, R. Olivares  : DMRG
   Ulf Ekstrom                                   : XCFun DFT Library
   Mihaly Kallay                                 : mrcc  (arbitrary order and MRCC methods)
   Jiri Pittner, Ondrej Demel                    : Mk-CCSD
   Frank Weinhold                                : gennbo (NPA and NBO analysis)
   Christopher J. Cramer and Donald G. Truhlar   : smd solvation model
   Lars Goerigk                                  : TD-DFT with DH, B97 family of functionals
   V. Asgeirsson, H. Jonsson                     : NEB implementation
   FAccTs GmbH                                   : IRC, NEB, NEB-TS, DLPNO-Multilevel, CI-OPT
                                                   MM, QMMM, 2- and 3-layer-ONIOM, Crystal-QMMM,
                                                   LR-CPCM, SF, NACMEs, symmetry and pop. for TD-DFT,
                                                   nearIR, NL-DFT gradient (VV10), updates on ESD,
                                                   ML-optimized integration grids
   S Lehtola, MJT Oliveira, MAL Marques          : LibXC Library
   Liviu Ungur et al                             : ANISO software


 Your calculation uses the libint2 library for the computation of 2-el integrals
 For citations please refer to: http://libint.valeyev.net

 Your ORCA version has been built with support for libXC version: 5.1.0
 For citations please refer to: https://tddft.org/programs/libxc/

 This ORCA versions uses:
   CBLAS   interface :  Fast vector & matrix operations
   LAPACKE interface :  Fast linear algebra routines
   SCALAPACK package :  Parallel linear algebra routines
   Shared memory     :  Shared parallel matrices
   BLAS/LAPACK       :  OpenBLAS 0.3.15  USE64BITINT DYNAMIC_ARCH NO_AFFINITY SkylakeX SINGLE_THREADED
        Core in use  :  SkylakeX
   Copyright (c) 2011-2014, The OpenBLAS Project


Your calculation utilizes the atom-pairwise dispersion correction
with the Becke-Johnson damping scheme (D3BJ)
Cite in your paper:
S.Grimme, S.Ehrlich, L.Goerigk, J Comput Chem, (2011), 32, 1456–1465 
S.Grimme, J.Antony, S.Ehrlich and H.Krieg, J.Chem.Phys., 132, (2010), 154104 
   

================================================================================

----- Orbital basis set information -----
Your calculation utilizes the basis: aug-cc-pVTZ 
    H, B-Ne : Obtained from the ccRepo (grant-hill.group.shef.ac.uk/ccrepo) Feb. 2017
              R. A. Kendall, T. H. Dunning, Jr., R. J. Harrison, J. Chem. Phys. 96, 6796 (1992)
         He : Obtained from the ccRepo (grant-hill.group.shef.ac.uk/ccrepo) Feb. 2017
              D. E. Woon, T. H. Dunning, Jr., J. Chem. Phys. 100, 2975 (1994)
  Li-Be, Na : Obtained from the ccRepo (grant-hill.group.shef.ac.uk/ccrepo) Feb. 2017
              B. P. Prascher, D. E. Woon, K. A. Peterson, T. H. Dunning, Jr., A. K. Wilson, Theor. Chem. Acc. 128, 69 (2011)
         Mg : Obtained from the Peterson Research Group Website (tyr0.chem.wsu.edu/~kipeters) Feb. 2017
              B. P. Prascher, D. E. Woon, K. A. Peterson, T. H. Dunning, Jr., A. K. Wilson, Theor. Chem. Acc. 128, 69 (2011)
      Al-Ar : Obtained from the ccRepo (grant-hill.group.shef.ac.uk/ccrepo) Feb. 2017
              D. E. Woon, T. H. Dunning, Jr., J. Chem. Phys. 98, 1358 (1993)
      Sc-Zn : Obtained from the ccRepo (grant-hill.group.shef.ac.uk/ccrepo) Feb. 2017
              N. B. Balabanov, K. A. Peterson, J. Chem. Phys. 123, 064107 (2005)
              N. B. Balabanov, K. A. Peterson, J. Chem. Phys. 125, 074110 (2006)
      Ga-Kr : Obtained from the ccRepo (grant-hill.group.shef.ac.uk/ccrepo) Feb. 2017
              A. K. Wilson, D. E. Woon, K. A. Peterson, T. H. Dunning, Jr., J. Chem. Phys. 110, 7667 (1999)
     Ag, Au : Obtained from the Peterson Research Group Website (tyr0.chem.wsu.edu/~kipeters) Feb. 2017
              K. A. Peterson, C. Puzzarini, Theor. Chem. Acc. 114, 283 (2005)

----- AuxJ basis set information -----
Your calculation utilizes the auxiliary basis: def2/J
   F. Weigend, Phys. Chem. Chem. Phys. 8, 1057 (2006).

----- AuxC basis set information -----
Your calculation utilizes the auxiliary basis: aug-cc-pVTZ/C 
  H-He, B-F, Al-Ar, Ga-Kr : Obtained from the EMSL Basis Set Exchange (bse.pnl.gov) Feb. 2017
                            F. Weigend, A. Kohn, C. Hattig, J. Chem. Phys. 116, 3175 (2002)
                   Be, Mg : Obtained from the TURBOMOLE 7.0 basis set library
                            C. Haettig, Phys. Chem. Chem. Phys. 7, 59 (2005)
                       Ne : Obtained from the EMSL Basis Set Exchange (bse.pnl.gov) Feb. 2017
                            C. Haettig, Phys. Chem. Chem. Phys. 7, 59 (2005)
                            F. Weigend, A. Kohn, C. Hattig, J. Chem. Phys. 116, 3175 (2002)
                    Sc-Zn : Obtained from the EMSL Basis Set Exchange (bse.pnl.gov) Feb. 2017
                            J. G. Hill, J. A. Platts, J. Chem. Phys. 128, 044104 (2008)

================================================================================
                                        WARNINGS
                       Please study these warnings very carefully!
================================================================================


WARNING: No MP2 level density has been requested!
         To caclulate MP2 level properties use
         %mp2 Density relaxed end
         or
         %mp2 Density unrelaxed end
         Otherwise for double-hybrid DFT only the energy is correct!

WARNING: There are different parametrizations of Gershom Martin's DSD-DFs
         for use with and without D3(BJ)!
         You are using the D3(BJ) parametrized version,
         consistent with the GMTKN55 benchmark (L. Goerigk et al., PCCP 2017, 19, 32184)

WARNING: The frozen-core approximation is turned on by default for 
         the MP2 part of double-hybrid DFT.

INFO   : the flag for use of the SHARK integral package has been found!

================================================================================
                                       INPUT FILE
================================================================================
NAME = A.11.avtz.com
|  1> !PAL8
|  2> !RI-DSD-PBEP86 D3BJ aug-cc-pVTZ aug-cc-pVTZ/C TightSCF
|  3> %maxcore 3000
|  4> 
|  5> 
|  6> * xyz -1 1
|  7> C -1.347814202  0.7304135904 -1.0115790987
|  8> C -2.5360358322  0.9766824951 -1.6992369483
|  9> H -3.4479295005  1.1192682092 -1.125706921
| 10> C -2.5324408925  1.0519645808 -3.0893823155
| 11> H -3.4613135021  1.2535788382 -3.6236116854
| 12> C -1.3476401916  0.8843070964 -3.8164515729
| 13> C -1.3641500267  0.8814850357 -5.3279186076
| 14> C -0.1622274258  0.6526529376 -3.1130424972
| 15> H  0.7721561549  0.5424171064 -3.6640819175
| 16> C -0.1588887012  0.5749875725 -1.7202127954
| 17> H  0.7613237841  0.4184399406 -1.163677627
| 18> S -1.3806149302  0.5292756487  0.8005852107
| 19> O  0.0178377223  0.8564214419  1.1819659529
| 20> O -2.4261951518  1.4848421215  1.2121522711
| 21> N -1.8225768552 -0.942174879  1.1039580488
| 22> H -0.97461056 -1.510976517  1.0558134013
| 23> N -1.624961852 -0.4322133352 -5.9427069305
| 24> H -2.131731009  1.5706485055 -5.6987340393
| 25> H -0.4023410286  1.2363593477 -5.7159916054
| 26> H -2.5154048131 -0.7816228254 -5.5898977612
| 27> H -0.927079187 -1.091581912 -5.5997155619
| 28> *
| 29> 
| 30>                          ****END OF INPUT****
================================================================================

                       ****************************
                       * Single Point Calculation *
                       ****************************

---------------------------------
CARTESIAN COORDINATES (ANGSTROEM)
---------------------------------
  C     -1.347814    0.730414   -1.011579
  C     -2.536036    0.976682   -1.699237
  H     -3.447930    1.119268   -1.125707
  C     -2.532441    1.051965   -3.089382
  H     -3.461314    1.253579   -3.623612
  C     -1.347640    0.884307   -3.816452
  C     -1.364150    0.881485   -5.327919
  C     -0.162227    0.652653   -3.113042
  H      0.772156    0.542417   -3.664082
  C     -0.158889    0.574988   -1.720213
  H      0.761324    0.418440   -1.163678
  S     -1.380615    0.529276    0.800585
  O      0.017838    0.856421    1.181966
  O     -2.426195    1.484842    1.212152
  N     -1.822577   -0.942175    1.103958
  H     -0.974611   -1.510977    1.055813
  N     -1.624962   -0.432213   -5.942707
  H     -2.131731    1.570649   -5.698734
  H     -0.402341    1.236359   -5.715992
  H     -2.515405   -0.781623   -5.589898
  H     -0.927079   -1.091582   -5.599716

----------------------------
CARTESIAN COORDINATES (A.U.)
----------------------------
  NO LB      ZA    FRAG     MASS         X           Y           Z
   0 C     6.0000    0    12.011   -2.547000    1.380282   -1.911607
   1 C     6.0000    0    12.011   -4.792413    1.845662   -3.211092
   2 H     1.0000    0     1.008   -6.515642    2.115110   -2.127278
   3 C     6.0000    0    12.011   -4.785620    1.987925   -5.838086
   4 H     1.0000    0     1.008   -6.540935    2.368921   -6.847634
   5 C     6.0000    0    12.011   -2.546671    1.671098   -7.212048
   6 C     6.0000    0    12.011   -2.577870    1.665765  -10.068307
   7 C     6.0000    0    12.011   -0.306565    1.233335   -5.882798
   8 H     1.0000    0     1.008    1.459164    1.025020   -6.924111
   9 C     6.0000    0    12.011   -0.300256    1.086569   -3.250731
  10 H     1.0000    0     1.008    1.438693    0.790737   -2.199032
  11 S    16.0000    0    32.060   -2.608984    1.000186    1.512887
  12 O     8.0000    0    15.999    0.033708    1.618402    2.233592
  13 O     8.0000    0    15.999   -4.584844    2.805945    2.290636
  14 N     7.0000    0    14.007   -3.444171   -1.780452    2.086178
  15 H     1.0000    0     1.008   -1.841747   -2.855332    1.995198
  16 N     7.0000    0    14.007   -3.070733   -0.816765  -11.230089
  17 H     1.0000    0     1.008   -4.028388    2.968096  -10.769047
  18 H     1.0000    0     1.008   -0.760314    2.336381  -10.801659
  19 H     1.0000    0     1.008   -4.753426   -1.477053  -10.563376
  20 H     1.0000    0     1.008   -1.751926   -2.062791  -10.581929

--------------------------------
INTERNAL COORDINATES (ANGSTROEM)
--------------------------------
 C      0   0   0     0.000000000000     0.00000000     0.00000000
 C      1   0   0     1.394773219564     0.00000000     0.00000000
 H      2   1   0     1.086654241406   118.54537764     0.00000000
 C      2   1   3     1.392186933557   119.97683069   179.18965346
 H      4   2   1     1.090345657723   119.80461586   180.55270620
 C      4   2   1     1.400175502566   120.94524693   359.96459107
 C      6   4   2     1.511559835291   120.67844889   176.17153518
 C      6   4   2     1.397730804693   118.43529096   359.34778366
 H      8   6   4     1.090352721410   119.28845754   181.36427651
 C      1   2   3     1.392789578361   119.74059655   181.49613607
 H     10   1   2     1.086751845097   118.57672640   177.88859843
 S      1   2   3     1.823587629818   119.60963059     4.64965371
 O     12   1   2     1.485982995129   102.34715514   202.66032444
 O     12   1   2     1.475036517835   102.62505430   324.26816165
 N     12   1   2     1.566056217865   107.53060529    81.12935400
 H     15  12   1     1.022203525855   106.23623281    84.69990078
 N      7   6   4     1.473699731932   114.88163686   273.01679270
 H      7   6   4     1.096189279679   110.16534215    34.16137019
 H      7   6   4     1.096181088035   110.10935776   151.85248474
 H     17   7   6     1.019534192049   108.40382262    57.01045618
 H     17   7   6     1.019534311886   108.36261147   303.50037585

---------------------------
INTERNAL COORDINATES (A.U.)
---------------------------
 C      0   0   0     0.000000000000     0.00000000     0.00000000
 C      1   0   0     2.635739403904     0.00000000     0.00000000
 H      2   1   0     2.053478918521   118.54537764     0.00000000
 C      2   1   3     2.630852031646   119.97683069   179.18965346
 H      4   2   1     2.060454684407   119.80461586   180.55270620
 C      4   2   1     2.645948239274   120.94524693   359.96459107
 C      6   4   2     2.856434123736   120.67844889   176.17153518
 C      6   4   2     2.641328429815   118.43529096   359.34778366
 H      8   6   4     2.060468032841   119.28845754   181.36427651
 C      1   2   3     2.631990865282   119.74059655   181.49613607
 H     10   1   2     2.053663362767   118.57672640   177.88859843
 S      1   2   3     3.446081201562   119.60963059     4.64965371
 O     12   1   2     2.808100900459   102.34715514   202.66032444
 O     12   1   2     2.787415056241   102.62505430   324.26816165
 N     12   1   2     2.959417362090   107.53060529    81.12935400
 H     15  12   1     1.931684716994   106.23623281    84.69990078
 N      7   6   4     2.784888896984   114.88163686   273.01679270
 H      7   6   4     2.071497529533   110.16534215    34.16137019
 H      7   6   4     2.071482049570   110.10935776   151.85248474
 H     17   7   6     1.926640407141   108.40382262    57.01045618
 H     17   7   6     1.926640633600   108.36261147   303.50037585

---------------------
BASIS SET INFORMATION
---------------------
There are 5 groups of distinct atoms

 Group   1 Type C   : 19s6p3d2f contracted to 5s4p3d2f pattern {88111/3111/111/11}
 Group   2 Type H   : 6s3p2d contracted to 4s3p2d pattern {3111/111/11}
 Group   3 Type S   : 42s17p3d2f contracted to 6s5p3d2f pattern {131313111/77111/111/11}
 Group   4 Type O   : 19s6p3d2f contracted to 5s4p3d2f pattern {88111/3111/111/11}
 Group   5 Type N   : 19s6p3d2f contracted to 5s4p3d2f pattern {88111/3111/111/11}

Atom   0C    basis set group =>   1
Atom   1C    basis set group =>   1
Atom   2H    basis set group =>   2
Atom   3C    basis set group =>   1
Atom   4H    basis set group =>   2
Atom   5C    basis set group =>   1
Atom   6C    basis set group =>   1
Atom   7C    basis set group =>   1
Atom   8H    basis set group =>   2
Atom   9C    basis set group =>   1
Atom  10H    basis set group =>   2
Atom  11S    basis set group =>   3
Atom  12O    basis set group =>   4
Atom  13O    basis set group =>   4
Atom  14N    basis set group =>   5
Atom  15H    basis set group =>   2
Atom  16N    basis set group =>   5
Atom  17H    basis set group =>   2
Atom  18H    basis set group =>   2
Atom  19H    basis set group =>   2
Atom  20H    basis set group =>   2
---------------------------------
AUXILIARY/J BASIS SET INFORMATION
---------------------------------
There are 5 groups of distinct atoms

 Group   1 Type C   : 12s5p4d2f1g contracted to 6s4p3d1f1g pattern {711111/2111/211/2/1}
 Group   2 Type H   : 5s2p1d contracted to 3s1p1d pattern {311/2/1}
 Group   3 Type S   : 14s5p5d2f1g contracted to 8s4p3d1f1g pattern {71111111/2111/311/2/1}
 Group   4 Type O   : 12s5p4d2f1g contracted to 6s4p3d1f1g pattern {711111/2111/211/2/1}
 Group   5 Type N   : 12s5p4d2f1g contracted to 6s4p3d1f1g pattern {711111/2111/211/2/1}

Atom   0C    basis set group =>   1
Atom   1C    basis set group =>   1
Atom   2H    basis set group =>   2
Atom   3C    basis set group =>   1
Atom   4H    basis set group =>   2
Atom   5C    basis set group =>   1
Atom   6C    basis set group =>   1
Atom   7C    basis set group =>   1
Atom   8H    basis set group =>   2
Atom   9C    basis set group =>   1
Atom  10H    basis set group =>   2
Atom  11S    basis set group =>   3
Atom  12O    basis set group =>   4
Atom  13O    basis set group =>   4
Atom  14N    basis set group =>   5
Atom  15H    basis set group =>   2
Atom  16N    basis set group =>   5
Atom  17H    basis set group =>   2
Atom  18H    basis set group =>   2
Atom  19H    basis set group =>   2
Atom  20H    basis set group =>   2
---------------------------------
AUXILIARY/C BASIS SET INFORMATION
---------------------------------
There are 5 groups of distinct atoms

 Group   1 Type C   : 9s7p6d4f2g contracted to 9s7p6d4f2g pattern {111111111/1111111/111111/1111/11}
 Group   2 Type H   : 5s4p3d2f contracted to 5s4p3d2f pattern {11111/1111/111/11}
 Group   3 Type S   : 11s9p8d6f3g contracted to 11s9p8d6f3g pattern {11111111111/111111111/11111111/111111/111}
 Group   4 Type O   : 9s7p6d4f2g contracted to 9s7p6d4f2g pattern {111111111/1111111/111111/1111/11}
 Group   5 Type N   : 9s7p6d4f2g contracted to 9s7p6d4f2g pattern {111111111/1111111/111111/1111/11}

Atom   0C    basis set group =>   1
Atom   1C    basis set group =>   1
Atom   2H    basis set group =>   2
Atom   3C    basis set group =>   1
Atom   4H    basis set group =>   2
Atom   5C    basis set group =>   1
Atom   6C    basis set group =>   1
Atom   7C    basis set group =>   1
Atom   8H    basis set group =>   2
Atom   9C    basis set group =>   1
Atom  10H    basis set group =>   2
Atom  11S    basis set group =>   3
Atom  12O    basis set group =>   4
Atom  13O    basis set group =>   4
Atom  14N    basis set group =>   5
Atom  15H    basis set group =>   2
Atom  16N    basis set group =>   5
Atom  17H    basis set group =>   2
Atom  18H    basis set group =>   2
Atom  19H    basis set group =>   2
Atom  20H    basis set group =>   2


           ************************************************************
           *        Program running with 8 parallel MPI-processes     *
           *              working on a common directory               *
           ************************************************************
------------------------------------------------------------------------------
                           ORCA GTO INTEGRAL CALCULATION
                           -- RI-GTO INTEGRALS CHOSEN --
------------------------------------------------------------------------------
------------------------------------------------------------------------------
                   ___                                                        
                  /   \      - P O W E R E D   B Y -                         
                 /     \                                                     
                 |  |  |   _    _      __       _____    __    __             
                 |  |  |  | |  | |    /  \     |  _  \  |  |  /  |          
                  \  \/   | |  | |   /    \    | | | |  |  | /  /          
                 / \  \   | |__| |  /  /\  \   | |_| |  |  |/  /          
                |  |  |   |  __  | /  /__\  \  |    /   |      \           
                |  |  |   | |  | | |   __   |  |    \   |  |\   \          
                \     /   | |  | | |  |  |  |  | |\  \  |  | \   \       
                 \___/    |_|  |_| |__|  |__|  |_| \__\ |__|  \__/        
                                                                              
                      - O R C A' S   B I G   F R I E N D -                    
                                      &                                       
                       - I N T E G R A L  F E E D E R -                       
                                                                              
 v1 FN, 2020, v2 2021                                                         
------------------------------------------------------------------------------


Reading SHARK input file A.11.avtz.SHARKINP.tmp ... ok
----------------------
SHARK INTEGRAL PACKAGE
----------------------

Number of atoms                             ...     21
Number of basis functions                   ...    854
Number of shells                            ...    332
Maximum angular momentum                    ...      3
Integral batch strategy                     ... SHARK/LIBINT Hybrid
RI-J (if used) integral strategy            ... SPLIT-RIJ (Revised 2003 algorithm where possible)
Printlevel                                  ...      1
Contraction scheme used                     ... PARTIAL GENERAL contraction
Coulomb Range Separation                    ... NOT USED
Exchange Range Separation                   ... NOT USED
Finite Nucleus Model                        ... NOT USED
Auxiliary Coulomb fitting basis             ... AVAILABLE
   # of basis functions in Aux-J            ...    689
   # of shells in Aux-J                     ...    227
   Maximum angular momentum in Aux-J        ...      4
Auxiliary J/K fitting basis                 ... NOT available
Auxiliary Correlation fitting basis         ... AVAILABLE
   # of basis functions in Aux-C            ...   1727
   # of shells in Aux-C                     ...    471
   Maximum angular momentum in Aux-C        ...      4
Auxiliary 'external' fitting basis          ... NOT available
Integral threshold                          ...     2.500000e-11
Primitive cut-off                           ...     2.500000e-12
Primitive pair pre-selection threshold      ...     2.500000e-12

Calculating pre-screening integrals         ... done (  0.1 sec) Dimension = 332
Calculating pre-screening integrals (ORCA)  ... done (  0.2 sec) Dimension = 251
Organizing shell pair data                  ... done (  0.4 sec)
Shell pair information
Total number of shell pairs                 ...     55278
Shell pairs after pre-screening             ...     42245
Total number of primitive shell pairs       ...     69438
Primitive shell pairs kept                  ...     49262
          la=0 lb=0:   9396 shell pairs
          la=1 lb=0:  10973 shell pairs
          la=1 lb=1:   2934 shell pairs
          la=2 lb=0:   7307 shell pairs
          la=2 lb=1:   3858 shell pairs
          la=2 lb=2:   1317 shell pairs
          la=3 lb=0:   3304 shell pairs
          la=3 lb=1:   1729 shell pairs
          la=3 lb=2:   1156 shell pairs
          la=3 lb=3:    271 shell pairs

Calculating one electron integrals          ... done (  0.1 sec)
Calculating RI/J V-Matrix + Cholesky decomp.... done (  0.0 sec)
Calculating RI/C V-Matrix + Cholesky decomp.... done (  0.2 sec)
Calculating Nuclear repulsion               ... done (  0.0 sec) ENN=    802.295570821233 Eh

SHARK setup successfully completed in   1.5 seconds

Maximum memory used throughout the entire GTOINT-calculation: 80.5 MB


           ************************************************************
           *        Program running with 8 parallel MPI-processes     *
           *              working on a common directory               *
           ************************************************************
-------------------------------------------------------------------------------
                                 ORCA SCF
-------------------------------------------------------------------------------

------------
SCF SETTINGS
------------
Hamiltonian:
 Density Functional     Method          .... DFT(GTOs)
 Exchange Functional    Exchange        .... PBE
   PBE kappa parameter   XKappa         ....  0.804000
   PBE mue parameter    XMuePBE         ....  0.219520
 Correlation Functional Correlation     .... P86
 LDA part of GGA corr.  LDAOpt          .... VWN-5
 Gradients option       PostSCFGGA      .... off
 Hybrid DFT is turned on
   Fraction HF Exchange ScalHFX         ....  0.700000
   Scaling of DF-GGA-X  ScalDFX         ....  0.300000
   Scaling of DF-GGA-C  ScalDFC         ....  0.430000
   Scaling of DF-LDA-C  ScalLDAC        ....  0.430000
   Perturbative correction              ....  1.000000
   Density functional embedding theory  .... OFF
   NL short-range parameter             .... 14.200000
 RI-approximation to the Coulomb term is turned on
   Number of AuxJ basis functions       .... 689
   RIJ-COSX (HFX calculated with COS-X)).... on


General Settings:
 Integral files         IntName         .... A.11.avtz
 Hartree-Fock type      HFTyp           .... RHF
 Total Charge           Charge          ....   -1
 Multiplicity           Mult            ....    1
 Number of Electrons    NEL             ....   98
 Basis Dimension        Dim             ....  763
 Nuclear Repulsion      ENuc            ....    802.2955708212 Eh

Convergence Acceleration:
 DIIS                   CNVDIIS         .... on
   Start iteration      DIISMaxIt       ....    12
   Startup error        DIISStart       ....  0.200000
   # of expansion vecs  DIISMaxEq       ....     5
   Bias factor          DIISBfac        ....   1.050
   Max. coefficient     DIISMaxC        ....  10.000
 Trust-Rad. Augm. Hess. CNVTRAH         .... auto
   Auto Start mean grad. ratio tolernc. ....  1.125000
   Auto Start start iteration           ....    20
   Auto Start num. interpolation iter.  ....    10
   Max. Number of Micro iterations      ....    16
   Max. Number of Macro iterations      .... Maxiter - #DIIS iter
   Number of Davidson start vectors     ....     2
   Converg. threshold I  (grad. norm)   ....   1.000e-05
   Converg. threshold II (energy diff.) ....   1.000e-08
   Grad. Scal. Fac. for Micro threshold ....   0.100
   Minimum threshold for Micro iter.    ....   0.010
   NR start threshold (gradient norm)   ....   0.001
   Initial trust radius                 ....   0.400
   Minimum AH scaling param. (alpha)    ....   1.000
   Maximum AH scaling param. (alpha)    .... 1000.000
   Orbital update algorithm             .... Taylor
   White noise on init. David. guess    .... on
   Maximum white noise                  ....   0.010
   Quad. conv. algorithm                .... NR
 SOSCF                  CNVSOSCF        .... on
   Start iteration      SOSCFMaxIt      ....   150
   Startup grad/error   SOSCFStart      ....  0.003300
 Level Shifting         CNVShift        .... on
   Level shift para.    LevelShift      ....    0.2500
   Turn off err/grad.   ShiftErr        ....    0.0010
 Zerner damping         CNVZerner       .... off
 Static damping         CNVDamp         .... on
   Fraction old density DampFac         ....    0.7000
   Max. Damping (<1)    DampMax         ....    0.9800
   Min. Damping (>=0)   DampMin         ....    0.0000
   Turn off err/grad.   DampErr         ....    0.1000
 Fernandez-Rico         CNVRico         .... off

SCF Procedure:
 Maximum # iterations   MaxIter         ....   125
 SCF integral mode      SCFMode         .... Direct
   Integral package                     .... SHARK and LIBINT hybrid scheme
 Reset frequency        DirectResetFreq ....    20
 Integral Threshold     Thresh          ....  2.500e-11 Eh
 Primitive CutOff       TCut            ....  2.500e-12 Eh

Convergence Tolerance:
 Convergence Check Mode ConvCheckMode   .... Total+1el-Energy
 Convergence forced     ConvForced      .... 0
 Energy Change          TolE            ....  1.000e-08 Eh
 1-El. energy change                    ....  1.000e-05 Eh
 Orbital Gradient       TolG            ....  1.000e-05
 Orbital Rotation angle TolX            ....  1.000e-05
 DIIS Error             TolErr          ....  5.000e-07


Diagonalization of the overlap matrix:
Smallest eigenvalue                        ... 4.315e-07
Time for diagonalization                   ...    0.097 sec
Threshold for overlap eigenvalues          ... 1.000e-08
Number of eigenvalues below threshold      ... 0
Time for construction of square roots      ...    0.062 sec
Total time needed                          ...    0.161 sec

Time for model grid setup =    0.175 sec

------------------------------
INITIAL GUESS: MODEL POTENTIAL
------------------------------
Loading Hartree-Fock densities                     ... done
Calculating cut-offs                               ... done
Initializing the effective Hamiltonian             ... done
Setting up the integral package (SHARK)            ... done
Starting the Coulomb interaction                   ... done (   0.4 sec)
Reading the grid                                   ... done
Mapping shells                                     ... done
Starting the XC term evaluation                    ... done (   0.4 sec)
  promolecular density results
     # of electrons  =     96.995799862
     EX              =    -92.787478541
     EC              =     -0.010816169
     EX+EC           =    -92.798294709
Transforming the Hamiltonian                       ... done (   0.0 sec)
Diagonalizing the Hamiltonian                      ... done (   0.1 sec)
Back transforming the eigenvectors                 ... done (   0.0 sec)
Now organizing SCF variables                       ... done
                      ------------------
                      INITIAL GUESS DONE (   1.2 sec)
                      ------------------
-------------------
DFT GRID GENERATION
-------------------

General Integration Accuracy     IntAcc      ... 4.388
Radial Grid Type                 RadialGrid  ... OptM3 with GC (2021)
Angular Grid (max. ang.)         AngularGrid ... 4 (Lebedev-302)
Angular grid pruning method      GridPruning ... 4 (adaptive)
Weight generation scheme         WeightScheme... Becke
Basis function cutoff            BFCut       ... 1.0000e-11
Integration weight cutoff        WCut        ... 1.0000e-14
Angular grids for H and He will be reduced by one unit
Partially contracted basis set               ... off
Rotationally invariant grid construction     ... off

Total number of grid points                  ...   107164
Total number of batches                      ...     1686
Average number of points per batch           ...       63
Average number of grid points per atom       ...     5103
Time for grid setup =    0.612 sec

--------------------
COSX GRID GENERATION
--------------------

GRIDX 1
-------
General Integration Accuracy     IntAcc      ... 3.816
Radial Grid Type                 RadialGrid  ... OptM3 with GC (2021)
Angular Grid (max. ang.)         AngularGrid ... 1 (Lebedev-50)
Angular grid pruning method      GridPruning ... 4 (adaptive)
Weight generation scheme         WeightScheme... Becke
Basis function cutoff            BFCut       ... 1.0000e-11
Integration weight cutoff        WCut        ... 1.0000e-14
Angular grids for H and He will be reduced by one unit
Partially contracted basis set               ... on
Rotationally invariant grid construction     ... off

Total number of grid points                  ...    13371
Total number of batches                      ...      217
Average number of points per batch           ...       61
Average number of grid points per atom       ...      637
UseSFitting                                  ... on

GRIDX 2
-------
General Integration Accuracy     IntAcc      ... 4.020
Radial Grid Type                 RadialGrid  ... OptM3 with GC (2021)
Angular Grid (max. ang.)         AngularGrid ... 2 (Lebedev-110)
Angular grid pruning method      GridPruning ... 4 (adaptive)
Weight generation scheme         WeightScheme... Becke
Basis function cutoff            BFCut       ... 1.0000e-11
Integration weight cutoff        WCut        ... 1.0000e-14
Angular grids for H and He will be reduced by one unit
Partially contracted basis set               ... on
Rotationally invariant grid construction     ... off

Total number of grid points                  ...    32560
Total number of batches                      ...      522
Average number of points per batch           ...       62
Average number of grid points per atom       ...     1550
UseSFitting                                  ... on

GRIDX 3
-------
General Integration Accuracy     IntAcc      ... 4.338
Radial Grid Type                 RadialGrid  ... OptM3 with GC (2021)
Angular Grid (max. ang.)         AngularGrid ... 3 (Lebedev-194)
Angular grid pruning method      GridPruning ... 4 (adaptive)
Weight generation scheme         WeightScheme... Becke
Basis function cutoff            BFCut       ... 1.0000e-11
Integration weight cutoff        WCut        ... 1.0000e-14
Angular grids for H and He will be reduced by one unit
Partially contracted basis set               ... on
Rotationally invariant grid construction     ... off

Total number of grid points                  ...    72607
Total number of batches                      ...     1145
Average number of points per batch           ...       63
Average number of grid points per atom       ...     3457
UseSFitting                                  ... on

Time for X-Grid setup             =    1.326 sec

 re-compute Schwartz prescreening matrix in partically contracted basis (1) ...done (   0.099 sec)
--------------
SCF ITERATIONS
--------------
ITER       Energy         Delta-E        Max-DP      RMS-DP      [F,P]     Damp
               ***  Starting incremental Fock matrix formation  ***
  0   -927.6324882777   0.000000000000 0.13447822  0.00186336  0.3338226 0.7000
  1   -927.8444731906  -0.211984912930 0.11183348  0.00145425  0.1827847 0.7000
                               ***Turning on DIIS***
  2   -927.9495081699  -0.105034979249 0.27303260  0.00311445  0.0834243 0.0000
  3   -928.1243693741  -0.174861204180 0.10566779  0.00089090  0.0818729 0.0000
  4   -928.1497899407  -0.025420566612 0.02490282  0.00024120  0.0060850 0.0000
  5   -928.1504737412  -0.000683800517 0.00752875  0.00009662  0.0047762 0.0000
                      *** Initiating the SOSCF procedure ***
                           *** Shutting down DIIS ***
                      *** Re-Reading the Fockian *** 
                      *** Removing any level shift *** 
ITER      Energy       Delta-E        Grad      Rot      Max-DP    RMS-DP
  6   -928.15062381  -0.0001500738  0.000285  0.000285  0.007293  0.000062
               *** Restarting incremental Fock matrix formation ***
  7   -928.15067706  -0.0000532473  0.000249  0.000666  0.047270  0.000562
  8   -928.15068354  -0.0000064765  0.000092  0.000282  0.020803  0.000218
  9   -928.15068492  -0.0000013793  0.000046  0.000093  0.010469  0.000163
 10   -928.15068541  -0.0000004949  0.000008  0.000020  0.003742  0.000038
 11   -928.15068544  -0.0000000243  0.000009  0.000017  0.004879  0.000029
                  ***Gradient check signals convergence***
              ***Rediagonalizing the Fockian in SOSCF/NRSCF***

               *****************************************************
               *                     SUCCESS                       *
               *           SCF CONVERGED AFTER  12 CYCLES          *
               *****************************************************

Old exchange energy                            =    -66.197682212 Eh
New exchange energy                            =    -66.197612538 Eh
Exchange energy change after final integration =      0.000069674 Eh
Total energy after final integration           =   -928.150615778 Eh
Final COS-X integration done in                =    22.988 sec

----------------
TOTAL SCF ENERGY
----------------

Total Energy       :         -928.15061578 Eh          -25256.26226 eV

Components:
Nuclear Repulsion  :          802.29557082 Eh           21831.57238 eV
Electronic Energy  :        -1730.44618660 Eh          -47087.83464 eV
One Electron Energy:        -2880.01044914 Eh          -78369.06853 eV
Two Electron Energy:         1149.56426254 Eh           31281.23389 eV
Max COSX asymmetry :            0.00002277 Eh               0.00062 eV

Virial components:
Potential Energy   :        -1853.64437694 Eh          -50440.22783 eV
Kinetic Energy     :          925.49376116 Eh           25183.96557 eV
Virial Ratio       :            2.00287074


DFT components:
N(Alpha)           :       49.000067175838 electrons
N(Beta)            :       49.000067175838 electrons
N(Total)           :       98.000134351676 electrons
E(X)               :      -28.265301653300 Eh       
E(C)               :       -1.619447270078 Eh       
E(XC)              :      -29.884748923378 Eh       
DFET-embed. en.    :        0.000000000000 Eh       

---------------
SCF CONVERGENCE
---------------

  Last Energy change         ...   -1.4928e-08  Tolerance :   1.0000e-08
  Last MAX-Density change    ...    4.6629e-15  Tolerance :   1.0000e-07
  Last RMS-Density change    ...    1.7340e-17  Tolerance :   5.0000e-09
  Last Orbital Gradient      ...    1.9779e-06  Tolerance :   1.0000e-05
  Last Orbital Rotation      ...    4.6837e-06  Tolerance :   1.0000e-05

             **** THE GBW FILE WAS UPDATED (A.11.avtz.gbw) ****
             **** DENSITY A.11.avtz.scfp WAS UPDATED ****
             **** ENERGY FILE WAS UPDATED (A.11.avtz.en.tmp) ****
             **** THE GBW FILE WAS UPDATED (A.11.avtz.gbw) ****
             **** DENSITY A.11.avtz.scfp WAS UPDATED ****
----------------
ORBITAL ENERGIES
----------------

  NO   OCC          E(Eh)            E(eV) 
   0   2.0000     -90.839090     -2471.8573 
   1   2.0000     -19.821601      -539.3732 
   2   2.0000     -19.819941      -539.3280 
   3   2.0000     -14.995141      -408.0385 
   4   2.0000     -14.879759      -404.8988 
   5   2.0000     -10.770016      -293.0670 
   6   2.0000     -10.736551      -292.1564 
   7   2.0000     -10.730469      -291.9909 
   8   2.0000     -10.729872      -291.9747 
   9   2.0000     -10.724182      -291.8198 
  10   2.0000     -10.722434      -291.7723 
  11   2.0000     -10.721986      -291.7601 
  12   2.0000      -8.580995      -233.5008 
  13   2.0000      -6.367239      -173.2614 
  14   2.0000      -6.365510      -173.2143 
  15   2.0000      -6.364582      -173.1891 
  16   2.0000      -1.130127       -30.7523 
  17   2.0000      -1.015015       -27.6200 
  18   2.0000      -0.993736       -27.0409 
  19   2.0000      -0.933987       -25.4151 
  20   2.0000      -0.872855       -23.7516 
  21   2.0000      -0.824699       -22.4412 
  22   2.0000      -0.808973       -22.0133 
  23   2.0000      -0.724069       -19.7029 
  24   2.0000      -0.642439       -17.4817 
  25   2.0000      -0.628463       -17.1013 
  26   2.0000      -0.568137       -15.4598 
  27   2.0000      -0.522802       -14.2262 
  28   2.0000      -0.509718       -13.8701 
  29   2.0000      -0.462883       -12.5957 
  30   2.0000      -0.457517       -12.4497 
  31   2.0000      -0.440989       -11.9999 
  32   2.0000      -0.430370       -11.7110 
  33   2.0000      -0.419389       -11.4121 
  34   2.0000      -0.416450       -11.3322 
  35   2.0000      -0.385864       -10.4999 
  36   2.0000      -0.372538       -10.1373 
  37   2.0000      -0.370344       -10.0776 
  38   2.0000      -0.341361        -9.2889 
  39   2.0000      -0.324084        -8.8188 
  40   2.0000      -0.287745        -7.8299 
  41   2.0000      -0.266258        -7.2453 
  42   2.0000      -0.254657        -6.9296 
  43   2.0000      -0.239763        -6.5243 
  44   2.0000      -0.223757        -6.0887 
  45   2.0000      -0.203103        -5.5267 
  46   2.0000      -0.197901        -5.3852 
  47   2.0000      -0.189086        -5.1453 
  48   2.0000      -0.148515        -4.0413 
  49   0.0000       0.088420         2.4060 
  50   0.0000       0.096241         2.6188 
  51   0.0000       0.099513         2.7079 
  52   0.0000       0.108769         2.9597 
  53   0.0000       0.120828         3.2879 
  54   0.0000       0.123074         3.3490 
  55   0.0000       0.129610         3.5269 
  56   0.0000       0.139504         3.7961 
  57   0.0000       0.145175         3.9504 
  58   0.0000       0.148018         4.0278 
  59   0.0000       0.160216         4.3597 
  60   0.0000       0.170510         4.6398 
  61   0.0000       0.175257         4.7690 
  62   0.0000       0.177388         4.8270 
  63   0.0000       0.177861         4.8398 
  64   0.0000       0.185273         5.0415 
  65   0.0000       0.189978         5.1696 
  66   0.0000       0.191640         5.2148 
  67   0.0000       0.194041         5.2801 
  68   0.0000       0.198442         5.3999 
  69   0.0000       0.202215         5.5025 
  70   0.0000       0.205769         5.5993 
  71   0.0000       0.211496         5.7551 
  72   0.0000       0.219665         5.9774 
  73   0.0000       0.221335         6.0228 
  74   0.0000       0.225808         6.1446 
  75   0.0000       0.228152         6.2083 
  76   0.0000       0.233828         6.3628 
  77   0.0000       0.236748         6.4422 
  78   0.0000       0.239368         6.5135 
  79   0.0000       0.245363         6.6767 
  80   0.0000       0.248467         6.7611 
  81   0.0000       0.255452         6.9512 
  82   0.0000       0.262902         7.1539 
  83   0.0000       0.263261         7.1637 
  84   0.0000       0.270787         7.3685 
  85   0.0000       0.274839         7.4788 
  86   0.0000       0.282881         7.6976 
  87   0.0000       0.289319         7.8728 
  88   0.0000       0.292672         7.9640 
  89   0.0000       0.299249         8.1430 
  90   0.0000       0.303191         8.2502 
  91   0.0000       0.309367         8.4183 
  92   0.0000       0.316960         8.6249 
  93   0.0000       0.319927         8.7057 
  94   0.0000       0.323948         8.8151 
  95   0.0000       0.328440         8.9373 
  96   0.0000       0.331965         9.0332 
  97   0.0000       0.333853         9.0846 
  98   0.0000       0.346461         9.4277 
  99   0.0000       0.349621         9.5137 
 100   0.0000       0.351544         9.5660 
 101   0.0000       0.357246         9.7212 
 102   0.0000       0.359810         9.7909 
 103   0.0000       0.362782         9.8718 
 104   0.0000       0.364419         9.9163 
 105   0.0000       0.369747        10.0613 
 106   0.0000       0.378820        10.3082 
 107   0.0000       0.380197        10.3457 
 108   0.0000       0.383376        10.4322 
 109   0.0000       0.385506        10.4901 
 110   0.0000       0.393992        10.7211 
 111   0.0000       0.395102        10.7513 
 112   0.0000       0.398145        10.8341 
 113   0.0000       0.399975        10.8839 
 114   0.0000       0.405581        11.0364 
 115   0.0000       0.411729        11.2037 
 116   0.0000       0.418612        11.3910 
 117   0.0000       0.423500        11.5240 
 118   0.0000       0.424168        11.5422 
 119   0.0000       0.427474        11.6321 
 120   0.0000       0.431742        11.7483 
 121   0.0000       0.437129        11.8949 
 122   0.0000       0.440362        11.9829 
 123   0.0000       0.441729        12.0201 
 124   0.0000       0.442354        12.0371 
 125   0.0000       0.450129        12.2486 
 126   0.0000       0.456782        12.4297 
 127   0.0000       0.461113        12.5475 
 128   0.0000       0.470760        12.8100 
 129   0.0000       0.472025        12.8445 
 130   0.0000       0.475093        12.9279 
 131   0.0000       0.480520        13.0756 
 132   0.0000       0.487968        13.2783 
 133   0.0000       0.492644        13.4055 
 134   0.0000       0.494646        13.4600 
 135   0.0000       0.504292        13.7225 
 136   0.0000       0.513061        13.9611 
 137   0.0000       0.516222        14.0471 
 138   0.0000       0.518115        14.0986 
 139   0.0000       0.525463        14.2986 
 140   0.0000       0.526423        14.3247 
 141   0.0000       0.530793        14.4436 
 142   0.0000       0.532762        14.4972 
 143   0.0000       0.535232        14.5644 
 144   0.0000       0.536375        14.5955 
 145   0.0000       0.543177        14.7806 
 146   0.0000       0.545238        14.8367 
 147   0.0000       0.549566        14.9545 
 148   0.0000       0.554629        15.0922 
 149   0.0000       0.555944        15.1280 
 150   0.0000       0.558392        15.1946 
 151   0.0000       0.562537        15.3074 
 152   0.0000       0.572634        15.5822 
 153   0.0000       0.577168        15.7055 
 154   0.0000       0.577915        15.7259 
 155   0.0000       0.578433        15.7400 
 156   0.0000       0.584663        15.9095 
 157   0.0000       0.587863        15.9966 
 158   0.0000       0.594579        16.1793 
 159   0.0000       0.597435        16.2570 
 160   0.0000       0.607242        16.5239 
 161   0.0000       0.610709        16.6182 
 162   0.0000       0.615002        16.7351 
 163   0.0000       0.619560        16.8591 
 164   0.0000       0.623687        16.9714 
 165   0.0000       0.624799        17.0017 
 166   0.0000       0.630915        17.1681 
 167   0.0000       0.634554        17.2671 
 168   0.0000       0.640440        17.4273 
 169   0.0000       0.643613        17.5136 
 170   0.0000       0.655238        17.8299 
 171   0.0000       0.659010        17.9326 
 172   0.0000       0.662328        18.0229 
 173   0.0000       0.666179        18.1277 
 174   0.0000       0.674641        18.3579 
 175   0.0000       0.684303        18.6208 
 176   0.0000       0.693721        18.8771 
 177   0.0000       0.695672        18.9302 
 178   0.0000       0.699097        19.0234 
 179   0.0000       0.707788        19.2599 
 180   0.0000       0.711183        19.3523 
 181   0.0000       0.718771        19.5588 
 182   0.0000       0.723310        19.6823 
 183   0.0000       0.728966        19.8362 
 184   0.0000       0.737806        20.0767 
 185   0.0000       0.743184        20.2231 
 186   0.0000       0.750939        20.4341 
 187   0.0000       0.758169        20.6308 
 188   0.0000       0.764817        20.8117 
 189   0.0000       0.770859        20.9761 
 190   0.0000       0.774921        21.0867 
 191   0.0000       0.778288        21.1783 
 192   0.0000       0.781730        21.2720 
 193   0.0000       0.793148        21.5826 
 194   0.0000       0.798543        21.7295 
 195   0.0000       0.803688        21.8695 
 196   0.0000       0.808970        22.0132 
 197   0.0000       0.816280        22.2121 
 198   0.0000       0.821105        22.3434 
 199   0.0000       0.828082        22.5333 
 200   0.0000       0.838909        22.8279 
 201   0.0000       0.850893        23.1540 
 202   0.0000       0.853383        23.2217 
 203   0.0000       0.861502        23.4427 
 204   0.0000       0.863910        23.5082 
 205   0.0000       0.870021        23.6745 
 206   0.0000       0.878283        23.8993 
 207   0.0000       0.881966        23.9995 
 208   0.0000       0.886223        24.1154 
 209   0.0000       0.894996        24.3541 
 210   0.0000       0.898869        24.4595 
 211   0.0000       0.901751        24.5379 
 212   0.0000       0.913990        24.8709 
 213   0.0000       0.916739        24.9457 
 214   0.0000       0.919291        25.0152 
 215   0.0000       0.926271        25.2051 
 216   0.0000       0.930934        25.3320 
 217   0.0000       0.933516        25.4023 
 218   0.0000       0.937555        25.5122 
 219   0.0000       0.940743        25.5989 
 220   0.0000       0.947996        25.7963 
 221   0.0000       0.952771        25.9262 
 222   0.0000       0.958539        26.0832 
 223   0.0000       0.965281        26.2666 
 224   0.0000       0.973984        26.5034 
 225   0.0000       0.980130        26.6707 
 226   0.0000       0.984228        26.7822 
 227   0.0000       0.987628        26.8747 
 228   0.0000       0.993982        27.0476 
 229   0.0000       1.000630        27.2285 
 230   0.0000       1.007084        27.4041 
 231   0.0000       1.011302        27.5189 
 232   0.0000       1.016756        27.6673 
 233   0.0000       1.020665        27.7737 
 234   0.0000       1.025092        27.8942 
 235   0.0000       1.033687        28.1280 
 236   0.0000       1.041495        28.3405 
 237   0.0000       1.051381        28.6095 
 238   0.0000       1.052590        28.6424 
 239   0.0000       1.053996        28.6807 
 240   0.0000       1.062747        28.9188 
 241   0.0000       1.071002        29.1435 
 242   0.0000       1.073345        29.2072 
 243   0.0000       1.076604        29.2959 
 244   0.0000       1.080529        29.4027 
 245   0.0000       1.087911        29.6036 
 246   0.0000       1.090928        29.6857 
 247   0.0000       1.096921        29.8487 
 248   0.0000       1.099424        29.9169 
 249   0.0000       1.102964        30.0132 
 250   0.0000       1.114614        30.3302 
 251   0.0000       1.118979        30.4490 
 252   0.0000       1.120228        30.4830 
 253   0.0000       1.125220        30.6188 
 254   0.0000       1.135474        30.8978 
 255   0.0000       1.137920        30.9644 
 256   0.0000       1.140203        31.0265 
 257   0.0000       1.146035        31.1852 
 258   0.0000       1.149659        31.2838 
 259   0.0000       1.153639        31.3921 
 260   0.0000       1.159217        31.5439 
 261   0.0000       1.160239        31.5717 
 262   0.0000       1.170894        31.8617 
 263   0.0000       1.172616        31.9085 
 264   0.0000       1.177872        32.0515 
 265   0.0000       1.185343        32.2548 
 266   0.0000       1.189321        32.3631 
 267   0.0000       1.199917        32.6514 
 268   0.0000       1.201694        32.6998 
 269   0.0000       1.207489        32.8575 
 270   0.0000       1.212748        33.0005 
 271   0.0000       1.217784        33.1376 
 272   0.0000       1.221219        33.2311 
 273   0.0000       1.221758        33.2457 
 274   0.0000       1.225703        33.3531 
 275   0.0000       1.228777        33.4367 
 276   0.0000       1.236711        33.6526 
 277   0.0000       1.248525        33.9741 
 278   0.0000       1.250557        34.0294 
 279   0.0000       1.252388        34.0792 
 280   0.0000       1.262136        34.3445 
 281   0.0000       1.267894        34.5011 
 282   0.0000       1.268878        34.5279 
 283   0.0000       1.279735        34.8234 
 284   0.0000       1.281197        34.8631 
 285   0.0000       1.283086        34.9145 
 286   0.0000       1.287532        35.0355 
 287   0.0000       1.294385        35.2220 
 288   0.0000       1.295888        35.2629 
 289   0.0000       1.304095        35.4862 
 290   0.0000       1.313695        35.7475 
 291   0.0000       1.321272        35.9536 
 292   0.0000       1.329488        36.1772 
 293   0.0000       1.333101        36.2755 
 294   0.0000       1.341565        36.5058 
 295   0.0000       1.344442        36.5841 
 296   0.0000       1.352101        36.7925 
 297   0.0000       1.353302        36.8252 
 298   0.0000       1.362785        37.0833 
 299   0.0000       1.377979        37.4967 
 300   0.0000       1.379216        37.5304 
 301   0.0000       1.386057        37.7165 
 302   0.0000       1.398176        38.0463 
 303   0.0000       1.400312        38.1044 
 304   0.0000       1.406776        38.2803 
 305   0.0000       1.410146        38.3720 
 306   0.0000       1.417326        38.5674 
 307   0.0000       1.425534        38.7907 
 308   0.0000       1.431305        38.9478 
 309   0.0000       1.442219        39.2448 
 310   0.0000       1.447929        39.4002 
 311   0.0000       1.458162        39.6786 
 312   0.0000       1.465046        39.8659 
 313   0.0000       1.470542        40.0155 
 314   0.0000       1.480479        40.2859 
 315   0.0000       1.483018        40.3550 
 316   0.0000       1.487064        40.4651 
 317   0.0000       1.497886        40.7596 
 318   0.0000       1.502318        40.8801 
 319   0.0000       1.504255        40.9328 
 320   0.0000       1.517328        41.2886 
 321   0.0000       1.521353        41.3981 
 322   0.0000       1.528992        41.6060 
 323   0.0000       1.534894        41.7666 
 324   0.0000       1.537167        41.8285 
 325   0.0000       1.548025        42.1239 
 326   0.0000       1.563617        42.5482 
 327   0.0000       1.573497        42.8170 
 328   0.0000       1.576559        42.9004 
 329   0.0000       1.581423        43.0327 
 330   0.0000       1.591682        43.3119 
 331   0.0000       1.602627        43.6097 
 332   0.0000       1.611481        43.8506 
 333   0.0000       1.613256        43.8989 
 334   0.0000       1.623156        44.1683 
 335   0.0000       1.630004        44.3547 
 336   0.0000       1.636604        44.5343 
 337   0.0000       1.641295        44.6619 
 338   0.0000       1.651630        44.9431 
 339   0.0000       1.659302        45.1519 
 340   0.0000       1.666263        45.3413 
 341   0.0000       1.671917        45.4952 
 342   0.0000       1.681050        45.7437 
 343   0.0000       1.684160        45.8283 
 344   0.0000       1.693827        46.0914 
 345   0.0000       1.706295        46.4307 
 346   0.0000       1.712283        46.5936 
 347   0.0000       1.723184        46.8902 
 348   0.0000       1.729996        47.0756 
 349   0.0000       1.737218        47.2721 
 350   0.0000       1.747354        47.5479 
 351   0.0000       1.752657        47.6922 
 352   0.0000       1.766197        48.0607 
 353   0.0000       1.770035        48.1651 
 354   0.0000       1.785733        48.5923 
 355   0.0000       1.789967        48.7075 
 356   0.0000       1.792585        48.7787 
 357   0.0000       1.807990        49.1979 
 358   0.0000       1.809606        49.2419 
 359   0.0000       1.821189        49.5571 
 360   0.0000       1.828691        49.7612 
 361   0.0000       1.832402        49.8622 
 362   0.0000       1.855266        50.4844 
 363   0.0000       1.858117        50.5619 
 364   0.0000       1.861762        50.6611 
 365   0.0000       1.884612        51.2829 
 366   0.0000       1.889703        51.4214 
 367   0.0000       1.902016        51.7565 
 368   0.0000       1.905158        51.8420 
 369   0.0000       1.911788        52.0224 
 370   0.0000       1.916129        52.1405 
 371   0.0000       1.924958        52.3808 
 372   0.0000       1.932852        52.5956 
 373   0.0000       1.940705        52.8093 
 374   0.0000       1.948368        53.0178 
 375   0.0000       1.958962        53.3061 
 376   0.0000       1.981174        53.9105 
 377   0.0000       1.983836        53.9829 
 378   0.0000       1.990730        54.1705 
 379   0.0000       2.004349        54.5411 
 380   0.0000       2.019377        54.9501 
 381   0.0000       2.023843        55.0716 
 382   0.0000       2.030628        55.2562 
 383   0.0000       2.041389        55.5490 
 384   0.0000       2.050974        55.8098 
 385   0.0000       2.056456        55.9590 
 386   0.0000       2.060682        56.0740 
 387   0.0000       2.069895        56.3247 
 388   0.0000       2.078972        56.5717 
 389   0.0000       2.086460        56.7755 
 390   0.0000       2.091438        56.9109 
 391   0.0000       2.100986        57.1707 
 392   0.0000       2.103494        57.2390 
 393   0.0000       2.118505        57.6475 
 394   0.0000       2.122323        57.7513 
 395   0.0000       2.128008        57.9060 
 396   0.0000       2.133426        58.0535 
 397   0.0000       2.134842        58.0920 
 398   0.0000       2.145933        58.3938 
 399   0.0000       2.154975        58.6399 
 400   0.0000       2.159154        58.7536 
 401   0.0000       2.162829        58.8536 
 402   0.0000       2.166750        58.9603 
 403   0.0000       2.188975        59.5650 
 404   0.0000       2.199496        59.8513 
 405   0.0000       2.201464        59.9049 
 406   0.0000       2.214811        60.2681 
 407   0.0000       2.222348        60.4732 
 408   0.0000       2.229610        60.6708 
 409   0.0000       2.238404        60.9101 
 410   0.0000       2.242928        61.0332 
 411   0.0000       2.269294        61.7506 
 412   0.0000       2.274372        61.8888 
 413   0.0000       2.278452        61.9998 
 414   0.0000       2.289679        62.3053 
 415   0.0000       2.294948        62.4487 
 416   0.0000       2.307151        62.7808 
 417   0.0000       2.309894        62.8554 
 418   0.0000       2.315482        63.0075 
 419   0.0000       2.326219        63.2996 
 420   0.0000       2.334666        63.5295 
 421   0.0000       2.348385        63.9028 
 422   0.0000       2.357477        64.1502 
 423   0.0000       2.365429        64.3666 
 424   0.0000       2.372686        64.5641 
 425   0.0000       2.387722        64.9732 
 426   0.0000       2.401489        65.3478 
 427   0.0000       2.407987        65.5247 
 428   0.0000       2.417957        65.7960 
 429   0.0000       2.420621        65.8684 
 430   0.0000       2.430605        66.1401 
 431   0.0000       2.441609        66.4396 
 432   0.0000       2.447907        66.6109 
 433   0.0000       2.450391        66.6785 
 434   0.0000       2.456132        66.8347 
 435   0.0000       2.463174        67.0264 
 436   0.0000       2.472890        67.2908 
 437   0.0000       2.483670        67.5841 
 438   0.0000       2.491394        67.7943 
 439   0.0000       2.500165        68.0329 
 440   0.0000       2.503618        68.1269 
 441   0.0000       2.517221        68.4971 
 442   0.0000       2.523449        68.6665 
 443   0.0000       2.533041        68.9275 
 444   0.0000       2.548426        69.3462 
 445   0.0000       2.558584        69.6226 
 446   0.0000       2.569681        69.9246 
 447   0.0000       2.576758        70.1171 
 448   0.0000       2.577254        70.1306 
 449   0.0000       2.586714        70.3881 
 450   0.0000       2.597492        70.6813 
 451   0.0000       2.603065        70.8330 
 452   0.0000       2.615132        71.1613 
 453   0.0000       2.622077        71.3503 
 454   0.0000       2.628198        71.5169 
 455   0.0000       2.638923        71.8088 
 456   0.0000       2.674332        72.7723 
 457   0.0000       2.677717        72.8644 
 458   0.0000       2.685246        73.0693 
 459   0.0000       2.689219        73.1774 
 460   0.0000       2.694050        73.3088 
 461   0.0000       2.715485        73.8921 
 462   0.0000       2.725780        74.1722 
 463   0.0000       2.735173        74.4278 
 464   0.0000       2.741740        74.6065 
 465   0.0000       2.762868        75.1814 
 466   0.0000       2.788640        75.8828 
 467   0.0000       2.806381        76.3655 
 468   0.0000       2.816000        76.6272 
 469   0.0000       2.824094        76.8475 
 470   0.0000       2.845689        77.4351 
 471   0.0000       2.854837        77.6841 
 472   0.0000       2.868975        78.0688 
 473   0.0000       2.872558        78.1663 
 474   0.0000       2.889337        78.6229 
 475   0.0000       2.898938        78.8841 
 476   0.0000       2.918529        79.4172 
 477   0.0000       2.927681        79.6662 
 478   0.0000       2.945728        80.1573 
 479   0.0000       2.959291        80.5264 
 480   0.0000       2.963961        80.6535 
 481   0.0000       2.983399        81.1824 
 482   0.0000       3.001792        81.6829 
 483   0.0000       3.022376        82.2430 
 484   0.0000       3.061794        83.3157 
 485   0.0000       3.068204        83.4901 
 486   0.0000       3.081962        83.8644 
 487   0.0000       3.091321        84.1191 
 488   0.0000       3.103194        84.4422 
 489   0.0000       3.153770        85.8185 
 490   0.0000       3.172364        86.3244 
 491   0.0000       3.191677        86.8499 
 492   0.0000       3.215387        87.4951 
 493   0.0000       3.222405        87.6861 
 494   0.0000       3.234013        88.0020 
 495   0.0000       3.279113        89.2292 
 496   0.0000       3.294813        89.6564 
 497   0.0000       3.305440        89.9456 
 498   0.0000       3.320846        90.3648 
 499   0.0000       3.328317        90.5681 
 500   0.0000       3.344238        91.0013 
 501   0.0000       3.365156        91.5705 
 502   0.0000       3.370772        91.7234 
 503   0.0000       3.393066        92.3300 
 504   0.0000       3.410978        92.8174 
 505   0.0000       3.430509        93.3489 
 506   0.0000       3.434879        93.4678 
 507   0.0000       3.437230        93.5318 
 508   0.0000       3.448373        93.8350 
 509   0.0000       3.468361        94.3789 
 510   0.0000       3.471938        94.4762 
 511   0.0000       3.490852        94.9909 
 512   0.0000       3.513319        95.6023 
 513   0.0000       3.516932        95.7006 
 514   0.0000       3.537213        96.2525 
 515   0.0000       3.546296        96.4996 
 516   0.0000       3.551790        96.6491 
 517   0.0000       3.561944        96.9254 
 518   0.0000       3.569390        97.1280 
 519   0.0000       3.575517        97.2948 
 520   0.0000       3.596765        97.8730 
 521   0.0000       3.600483        97.9741 
 522   0.0000       3.611467        98.2730 
 523   0.0000       3.615902        98.3937 
 524   0.0000       3.625362        98.6511 
 525   0.0000       3.635277        98.9209 
 526   0.0000       3.643263        99.1382 
 527   0.0000       3.664093        99.7050 
 528   0.0000       3.667858        99.8075 
 529   0.0000       3.679796       100.1323 
 530   0.0000       3.700599       100.6984 
 531   0.0000       3.713631       101.0530 
 532   0.0000       3.724093       101.3377 
 533   0.0000       3.729632       101.4885 
 534   0.0000       3.754206       102.1572 
 535   0.0000       3.759218       102.2935 
 536   0.0000       3.768993       102.5595 
 537   0.0000       3.771953       102.6400 
 538   0.0000       3.796812       103.3165 
 539   0.0000       3.800240       103.4098 
 540   0.0000       3.812802       103.7516 
 541   0.0000       3.827310       104.1464 
 542   0.0000       3.843355       104.5830 
 543   0.0000       3.858852       105.0047 
 544   0.0000       3.867805       105.2483 
 545   0.0000       3.878023       105.5264 
 546   0.0000       3.885417       105.7276 
 547   0.0000       3.903551       106.2210 
 548   0.0000       3.913488       106.4914 
 549   0.0000       3.922837       106.7458 
 550   0.0000       3.926666       106.8500 
 551   0.0000       3.931493       106.9814 
 552   0.0000       3.947175       107.4081 
 553   0.0000       3.950720       107.5046 
 554   0.0000       3.954524       107.6081 
 555   0.0000       3.967487       107.9608 
 556   0.0000       3.983320       108.3916 
 557   0.0000       3.995876       108.7333 
 558   0.0000       4.006007       109.0090 
 559   0.0000       4.012841       109.1950 
 560   0.0000       4.037598       109.8686 
 561   0.0000       4.041755       109.9817 
 562   0.0000       4.048453       110.1640 
 563   0.0000       4.064269       110.5944 
 564   0.0000       4.080445       111.0346 
 565   0.0000       4.085973       111.1850 
 566   0.0000       4.090986       111.3214 
 567   0.0000       4.105459       111.7152 
 568   0.0000       4.143207       112.7424 
 569   0.0000       4.145728       112.8110 
 570   0.0000       4.154189       113.0412 
 571   0.0000       4.167986       113.4167 
 572   0.0000       4.176756       113.6553 
 573   0.0000       4.184594       113.8686 
 574   0.0000       4.207957       114.5043 
 575   0.0000       4.222772       114.9075 
 576   0.0000       4.230850       115.1273 
 577   0.0000       4.251910       115.7004 
 578   0.0000       4.253296       115.7381 
 579   0.0000       4.260519       115.9346 
 580   0.0000       4.265218       116.0625 
 581   0.0000       4.273125       116.2776 
 582   0.0000       4.281006       116.4921 
 583   0.0000       4.303444       117.1027 
 584   0.0000       4.317205       117.4771 
 585   0.0000       4.320875       117.5770 
 586   0.0000       4.334217       117.9401 
 587   0.0000       4.343268       118.1863 
 588   0.0000       4.356308       118.5412 
 589   0.0000       4.376528       119.0914 
 590   0.0000       4.380973       119.2123 
 591   0.0000       4.391505       119.4989 
 592   0.0000       4.395744       119.6143 
 593   0.0000       4.401641       119.7748 
 594   0.0000       4.416656       120.1833 
 595   0.0000       4.431154       120.5778 
 596   0.0000       4.437620       120.7538 
 597   0.0000       4.445959       120.9807 
 598   0.0000       4.462302       121.4254 
 599   0.0000       4.475123       121.7743 
 600   0.0000       4.481547       121.9491 
 601   0.0000       4.489066       122.1537 
 602   0.0000       4.504206       122.5657 
 603   0.0000       4.510375       122.7335 
 604   0.0000       4.512913       122.8026 
 605   0.0000       4.522032       123.0508 
 606   0.0000       4.542453       123.6064 
 607   0.0000       4.547847       123.7532 
 608   0.0000       4.577051       124.5479 
 609   0.0000       4.595076       125.0384 
 610   0.0000       4.609920       125.4423 
 611   0.0000       4.622434       125.7828 
 612   0.0000       4.645329       126.4058 
 613   0.0000       4.647783       126.4726 
 614   0.0000       4.671244       127.1110 
 615   0.0000       4.678683       127.3134 
 616   0.0000       4.690045       127.6226 
 617   0.0000       4.690784       127.6427 
 618   0.0000       4.707713       128.1034 
 619   0.0000       4.723072       128.5213 
 620   0.0000       4.748648       129.2173 
 621   0.0000       4.766416       129.7008 
 622   0.0000       4.768026       129.7446 
 623   0.0000       4.787805       130.2828 
 624   0.0000       4.812693       130.9600 
 625   0.0000       4.818646       131.1220 
 626   0.0000       4.824497       131.2812 
 627   0.0000       4.834345       131.5492 
 628   0.0000       4.847355       131.9032 
 629   0.0000       4.864323       132.3650 
 630   0.0000       4.875754       132.6760 
 631   0.0000       4.888619       133.0261 
 632   0.0000       4.906284       133.5068 
 633   0.0000       4.912616       133.6791 
 634   0.0000       4.928260       134.1048 
 635   0.0000       4.948677       134.6603 
 636   0.0000       4.949921       134.6942 
 637   0.0000       4.958130       134.9176 
 638   0.0000       4.995134       135.9245 
 639   0.0000       4.998377       136.0128 
 640   0.0000       5.008837       136.2974 
 641   0.0000       5.018363       136.5566 
 642   0.0000       5.022319       136.6642 
 643   0.0000       5.050512       137.4314 
 644   0.0000       5.058129       137.6387 
 645   0.0000       5.069776       137.9556 
 646   0.0000       5.077073       138.1542 
 647   0.0000       5.083773       138.3365 
 648   0.0000       5.094891       138.6390 
 649   0.0000       5.108600       139.0121 
 650   0.0000       5.120824       139.3447 
 651   0.0000       5.123370       139.4140 
 652   0.0000       5.131248       139.6283 
 653   0.0000       5.153969       140.2466 
 654   0.0000       5.182347       141.0188 
 655   0.0000       5.188743       141.1929 
 656   0.0000       5.196270       141.3977 
 657   0.0000       5.198370       141.4548 
 658   0.0000       5.211707       141.8178 
 659   0.0000       5.221504       142.0843 
 660   0.0000       5.246274       142.7584 
 661   0.0000       5.264547       143.2556 
 662   0.0000       5.276771       143.5882 
 663   0.0000       5.302764       144.2956 
 664   0.0000       5.318743       144.7303 
 665   0.0000       5.324544       144.8882 
 666   0.0000       5.349745       145.5740 
 667   0.0000       5.358291       145.8065 
 668   0.0000       5.394921       146.8033 
 669   0.0000       5.411262       147.2479 
 670   0.0000       5.418496       147.4448 
 671   0.0000       5.437390       147.9589 
 672   0.0000       5.440455       148.0423 
 673   0.0000       5.444489       148.1521 
 674   0.0000       5.468478       148.8049 
 675   0.0000       5.505804       149.8205 
 676   0.0000       5.526482       150.3832 
 677   0.0000       5.532920       150.5584 
 678   0.0000       5.575258       151.7105 
 679   0.0000       5.576358       151.7404 
 680   0.0000       5.591939       152.1644 
 681   0.0000       5.618832       152.8962 
 682   0.0000       5.656155       153.9118 
 683   0.0000       5.692715       154.9067 
 684   0.0000       5.713452       155.4709 
 685   0.0000       5.757121       156.6592 
 686   0.0000       5.766221       156.9069 
 687   0.0000       5.795382       157.7004 
 688   0.0000       5.804699       157.9539 
 689   0.0000       5.817792       158.3102 
 690   0.0000       5.856324       159.3587 
 691   0.0000       5.868608       159.6929 
 692   0.0000       5.901736       160.5944 
 693   0.0000       5.915378       160.9656 
 694   0.0000       5.969357       162.4345 
 695   0.0000       5.995545       163.1471 
 696   0.0000       5.999720       163.2607 
 697   0.0000       6.018213       163.7639 
 698   0.0000       6.049725       164.6214 
 699   0.0000       6.050441       164.6409 
 700   0.0000       6.063584       164.9985 
 701   0.0000       6.076015       165.3368 
 702   0.0000       6.122810       166.6101 
 703   0.0000       6.130901       166.8303 
 704   0.0000       6.191940       168.4913 
 705   0.0000       6.218933       169.2258 
 706   0.0000       6.237198       169.7228 
 707   0.0000       6.271976       170.6692 
 708   0.0000       6.326123       172.1426 
 709   0.0000       6.330508       172.2619 
 710   0.0000       6.413142       174.5105 
 711   0.0000       6.455788       175.6709 
 712   0.0000       6.502949       176.9542 
 713   0.0000       6.511662       177.1913 
 714   0.0000       6.522146       177.4766 
 715   0.0000       6.550088       178.2370 
 716   0.0000       6.631219       180.4446 
 717   0.0000       6.723216       182.9480 
 718   0.0000       6.730736       183.1526 
 719   0.0000       6.758834       183.9172 
 720   0.0000       6.775818       184.3794 
 721   0.0000       6.816010       185.4731 
 722   0.0000       6.839466       186.1113 
 723   0.0000       6.873425       187.0354 
 724   0.0000       6.886033       187.3785 
 725   0.0000       6.893360       187.5779 
 726   0.0000       6.926315       188.4746 
 727   0.0000       6.936507       188.7520 
 728   0.0000       6.958240       189.3433 
 729   0.0000       6.979733       189.9282 
 730   0.0000       6.993972       190.3157 
 731   0.0000       7.007688       190.6889 
 732   0.0000       7.022122       191.0817 
 733   0.0000       7.031836       191.3460 
 734   0.0000       7.037206       191.4921 
 735   0.0000       7.048668       191.8040 
 736   0.0000       7.072394       192.4496 
 737   0.0000       7.122754       193.8200 
 738   0.0000       7.158582       194.7949 
 739   0.0000       7.168150       195.0553 
 740   0.0000       7.268409       197.7835 
 741   0.0000       7.288616       198.3333 
 742   0.0000       7.349838       199.9993 
 743   0.0000       7.355203       200.1452 
 744   0.0000       7.564238       205.8334 
 745   0.0000       7.626892       207.5383 
 746   0.0000       7.665485       208.5885 
 747   0.0000       7.719080       210.0469 
 748   0.0000       7.759885       211.1572 
 749   0.0000       7.769476       211.4182 
 750   0.0000       7.788386       211.9328 
 751   0.0000      12.768877       347.4588 
 752   0.0000      12.927593       351.7777 
 753   0.0000      13.898902       378.2084 
 754   0.0000      14.458974       393.4487 
 755   0.0000      15.943154       433.8353 
 756   0.0000      16.213259       441.1852 
 757   0.0000      16.865838       458.9428 
 758   0.0000      18.007326       490.0043 
 759   0.0000      18.767947       510.7018 
 760   0.0000      19.351527       526.5818 
 761   0.0000      20.076236       546.3021 
 762   0.0000      20.513961       558.2133 

                    ********************************
                    * MULLIKEN POPULATION ANALYSIS *
                    ********************************

-----------------------
MULLIKEN ATOMIC CHARGES
-----------------------
   0 C :    0.932958
   1 C :   -0.881933
   2 H :    0.474761
   3 C :   -0.939533
   4 H :    0.319744
   5 C :    1.438915
   6 C :   -0.200446
   7 C :   -0.983840
   8 H :    0.268958
   9 C :   -0.883989
  10 H :    0.423547
  11 S :    1.880850
  12 O :   -1.014845
  13 O :   -1.009814
  14 N :   -1.089585
  15 H :    0.104778
  16 N :   -0.623965
  17 H :    0.279661
  18 H :    0.252232
  19 H :    0.121726
  20 H :    0.129819
Sum of atomic charges:   -1.0000000

--------------------------------
MULLIKEN REDUCED ORBITAL CHARGES
--------------------------------
  0 C s       :     2.921446  s :     2.921446
      pz      :     0.563469  p :     2.275065
      px      :     0.772962
      py      :     0.938633
      dz2     :    -0.093382  d :    -0.083014
      dxz     :     0.001245
      dyz     :     0.001441
      dx2y2   :     0.001653
      dxy     :     0.006029
      f0      :     0.001620  f :    -0.046455
      f+1     :    -0.035534
      f-1     :    -0.001758
      f+2     :    -0.005059
      f-2     :    -0.004685
      f+3     :    -0.001283
      f-3     :     0.000243
  1 C s       :     3.877803  s :     3.877803
      pz      :     0.862302  p :     2.879613
      px      :     1.048989
      py      :     0.968322
      dz2     :    -0.000903  d :     0.140842
      dxz     :     0.080507
      dyz     :     0.038623
      dx2y2   :     0.011978
      dxy     :     0.010637
      f0      :    -0.000590  f :    -0.016325
      f+1     :    -0.021082
      f-1     :    -0.000350
      f+2     :     0.005286
      f-2     :     0.000410
      f+3     :    -0.000564
      f-3     :     0.000563
  2 H s       :     0.500833  s :     0.500833
      pz      :     0.008116  p :     0.023332
      px      :    -0.008713
      py      :     0.023928
      dz2     :    -0.000099  d :     0.001074
      dxz     :    -0.000951
      dyz     :     0.000827
      dx2y2   :    -0.000775
      dxy     :     0.002072
  3 C s       :     3.778539  s :     3.778539
      pz      :     0.975702  p :     3.101980
      px      :     1.083875
      py      :     1.042403
      dz2     :    -0.038885  d :     0.078444
      dxz     :     0.113554
      dyz     :     0.002064
      dx2y2   :    -0.019851
      dxy     :     0.021562
      f0      :     0.000967  f :    -0.019430
      f+1     :    -0.022929
      f-1     :     0.000311
      f+2     :     0.002705
      f-2     :    -0.000577
      f+3     :    -0.001110
      f-3     :     0.001202
  4 H s       :     0.644894  s :     0.644894
[...]
      f-2     :     0.026968
      f+3     :     0.024816
      f-3     :     0.025922
  4 H s       :     0.661820  s :     0.661820
      pz      :     0.094706  p :     0.303271
      px      :     0.119713
      py      :     0.088852
      dz2     :     0.049450  d :     0.216062
      dxz     :     0.053817
      dyz     :     0.019913
      dx2y2   :     0.047368
      dxy     :     0.045514
  5 C s       :     2.458000  s :     2.458000
      pz      :     0.796710  p :     2.252486
      px      :     0.851903
      py      :     0.603873
      dz2     :     0.246224  d :     0.926139
      dxz     :     0.258593
      dyz     :     0.127468
      dx2y2   :     0.150828
      dxy     :     0.143025
      f0      :     0.051468  f :     0.498666
      f+1     :     0.193093
      f-1     :     0.057479
      f+2     :     0.052375
      f-2     :     0.068187
      f+3     :     0.043060
      f-3     :     0.033003
  6 C s       :     2.427850  s :     2.427850
      pz      :     0.750612  p :     2.192994
      px      :     0.766896
      py      :     0.675485
      dz2     :     0.212489  d :     0.863882
      dxz     :     0.144275
      dyz     :     0.217874
      dx2y2   :     0.117693
      dxy     :     0.171549
      f0      :     0.049635  f :     0.391857
      f+1     :     0.062769
      f-1     :     0.107041
      f+2     :     0.047498
      f-2     :     0.039114
      f+3     :     0.047017
      f-3     :     0.038784
  7 C s       :     2.476604  s :     2.476604
      pz      :     0.845611  p :     2.278363
      px      :     0.820514
      py      :     0.612238
      dz2     :     0.188989  d :     0.711508
      dxz     :     0.252713
      dyz     :     0.115953
      dx2y2   :     0.089636
      dxy     :     0.064217
      f0      :     0.055301  f :     0.340445
      f+1     :     0.127553
      f-1     :     0.045674
      f+2     :     0.033588
      f-2     :     0.026446
      f+3     :     0.027183
      f-3     :     0.024701
  8 H s       :     0.662119  s :     0.662119
      pz      :     0.095951  p :     0.303921
      px      :     0.119496
      py      :     0.088474
      dz2     :     0.051166  d :     0.216371
      dxz     :     0.053761
      dyz     :     0.019482
      dx2y2   :     0.045992
      dxy     :     0.045971
  9 C s       :     2.485778  s :     2.485778
      pz      :     0.854994  p :     2.288456
      px      :     0.841392
      py      :     0.592070
      dz2     :     0.202334  d :     0.726636
      dxz     :     0.254569
      dyz     :     0.115906
      dx2y2   :     0.087102
      dxy     :     0.066725
      f0      :     0.056555  f :     0.348747
      f+1     :     0.132651
      f-1     :     0.045436
      f+2     :     0.035179
      f-2     :     0.026913
      f+3     :     0.026145
      f-3     :     0.025867
 10 H s       :     0.658472  s :     0.658472
      pz      :     0.114020  p :     0.320279
      px      :     0.123810
      py      :     0.082450
      dz2     :     0.063419  d :     0.232254
      dxz     :     0.054135
      dyz     :     0.022786
      dx2y2   :     0.048048
      dxy     :     0.043864
 11 S s       :     4.501297  s :     4.501297
      pz      :     2.660624  p :     8.112268
      px      :     2.717658
      py      :     2.733986
      dz2     :     0.489071  d :     2.289884
      dxz     :     0.371189
      dyz     :     0.359164
      dx2y2   :     0.534098
      dxy     :     0.536362
      f0      :     0.132327  f :     1.237621
      f+1     :     0.162589
      f-1     :     0.125574
      f+2     :     0.141406
      f-2     :     0.135884
      f+3     :     0.286285
      f-3     :     0.253556
 12 O s       :     3.329599  s :     3.329599
      pz      :     1.488599  p :     4.400911
      px      :     1.410957
      py      :     1.501355
      dz2     :     0.038762  d :     0.223778
      dxz     :     0.056026
      dyz     :     0.009497
      dx2y2   :     0.062403
      dxy     :     0.057090
      f0      :     0.005747  f :     0.067198
      f+1     :     0.013946
      f-1     :     0.001901
      f+2     :     0.010665
      f-2     :     0.004999
      f+3     :     0.015074
      f-3     :     0.014866
 13 O s       :     3.329094  s :     3.329094
      pz      :     1.483352  p :     4.394455
      px      :     1.447961
      py      :     1.463143
      dz2     :     0.038732  d :     0.225504
      dxz     :     0.037816
      dyz     :     0.029316
      dx2y2   :     0.057577
      dxy     :     0.062063
      f0      :     0.005854  f :     0.069127
      f+1     :     0.008872
      f-1     :     0.007444
      f+2     :     0.003797
      f-2     :     0.012769
      f+3     :     0.014937
      f-3     :     0.015455
 14 N s       :     2.920026  s :     2.920026
      pz      :     1.170386  p :     3.374012
      px      :     1.180220
      py      :     1.023406
      dz2     :     0.046758  d :     0.321467
      dxz     :     0.010543
      dyz     :     0.064320
      dx2y2   :     0.089513
      dxy     :     0.110332
      f0      :     0.007900  f :     0.112236
      f+1     :     0.005539
      f-1     :     0.021474
      f+2     :     0.013640
      f-2     :     0.008799
      f+3     :     0.025795
      f-3     :     0.029089
 15 H s       :     0.677116  s :     0.677116
      pz      :     0.175446  p :     0.568689
      px      :     0.238926
      py      :     0.154317
      dz2     :     0.032586  d :     0.353105
      dxz     :     0.071917
      dyz     :     0.042262
      dx2y2   :     0.128963
      dxy     :     0.077376
 16 N s       :     2.685889  s :     2.685889
      pz      :     1.145855  p :     2.987011
      px      :     0.936960
      py      :     0.904196
      dz2     :     0.067530  d :     0.383240
      dxz     :     0.023883
      dyz     :     0.069650
      dx2y2   :     0.079554
      dxy     :     0.142623
      f0      :     0.005994  f :     0.117818
      f+1     :     0.002763
      f-1     :     0.028433
      f+2     :     0.017174
      f-2     :     0.018192
      f+3     :     0.025139
      f-3     :     0.020123
 17 H s       :     0.632636  s :     0.632636
      pz      :     0.088097  p :     0.298220
      px      :     0.117226
      py      :     0.092897
      dz2     :     0.047626  d :     0.230020
      dxz     :     0.036391
      dyz     :     0.031469
      dx2y2   :     0.077894
      dxy     :     0.036640
 18 H s       :     0.632536  s :     0.632536
      pz      :     0.088855  p :     0.298795
      px      :     0.133165
      py      :     0.076775
      dz2     :     0.049259  d :     0.230608
      dxz     :     0.052137
      dyz     :     0.015292
      dx2y2   :     0.055846
      dxy     :     0.058074
 19 H s       :     0.596218  s :     0.596218
      pz      :     0.160411  p :     0.433222
      px      :     0.166145
      py      :     0.106666
      dz2     :     0.052015  d :     0.299155
      dxz     :     0.077969
      dyz     :     0.019261
      dx2y2   :     0.075104
      dxy     :     0.074807
 20 H s       :     0.596437  s :     0.596437
      pz      :     0.159293  p :     0.432585
      px      :     0.143266
      py      :     0.130027
      dz2     :     0.050824  d :     0.299067
      dxz     :     0.049884
      dyz     :     0.047715
      dx2y2   :     0.098359
      dxy     :     0.052285


                      *****************************
                      * MAYER POPULATION ANALYSIS *
                      *****************************

  NA   - Mulliken gross atomic population
  ZA   - Total nuclear charge
  QA   - Mulliken gross atomic charge
  VA   - Mayer's total valence
  BVA  - Mayer's bonded valence
  FA   - Mayer's free valence

  ATOM       NA         ZA         QA         VA         BVA        FA
  0 C      5.0670     6.0000     0.9330     3.1688     3.1688    -0.0000
  1 C      6.8819     6.0000    -0.8819     2.9138     2.9138    -0.0000
  2 H      0.5252     1.0000     0.4748     0.7379     0.7379     0.0000
  3 C      6.9395     6.0000    -0.9395     2.6529     2.6529    -0.0000
  4 H      0.6803     1.0000     0.3197     0.9201     0.9201    -0.0000
  5 C      4.5611     6.0000     1.4389     1.3773     1.3773    -0.0000
  6 C      6.2004     6.0000    -0.2004     3.4841     3.4841    -0.0000
  7 C      6.9838     6.0000    -0.9838     2.9177     2.9177    -0.0000
  8 H      0.7310     1.0000     0.2690     0.9912     0.9912     0.0000
  9 C      6.8840     6.0000    -0.8840     2.9122     2.9122    -0.0000
 10 H      0.5765     1.0000     0.4235     0.7962     0.7962    -0.0000
 11 S     14.1191    16.0000     1.8809     4.5941     4.5941    -0.0000
 12 O      9.0148     8.0000    -1.0148     1.3266     1.3266    -0.0000
 13 O      9.0098     8.0000    -1.0098     1.3350     1.3350    -0.0000
 14 N      8.0896     7.0000    -1.0896     2.4746     2.4746    -0.0000
 15 H      0.8952     1.0000     0.1048     1.1042     1.1042    -0.0000
 16 N      7.6240     7.0000    -0.6240     2.6860     2.6860    -0.0000
 17 H      0.7203     1.0000     0.2797     0.9921     0.9921    -0.0000
 18 H      0.7478     1.0000     0.2522     1.0234     1.0234    -0.0000
 19 H      0.8783     1.0000     0.1217     1.0423     1.0423    -0.0000
 20 H      0.8702     1.0000     0.1298     1.0273     1.0273    -0.0000

  Mayer bond orders larger than 0.100000
B(  0-C ,  1-C ) :   1.0109 B(  0-C ,  9-C ) :   0.8054 B(  0-C , 11-S ) :   0.8884 
B(  0-C , 12-O ) :   0.1325 B(  0-C , 13-O ) :   0.1187 B(  0-C , 14-N ) :   0.1468 
B(  1-C ,  2-H ) :   0.6542 B(  1-C ,  3-C ) :   1.3488 B(  3-C ,  4-H ) :   1.0102 
B(  3-C ,  5-C ) :   0.5836 B(  3-C ,  7-C ) :  -0.1589 B(  5-C ,  6-C ) :   0.4274 
B(  5-C ,  7-C ) :   0.6276 B(  6-C , 16-N ) :   0.8227 B(  6-C , 17-H ) :   1.0030 
B(  6-C , 18-H ) :   1.0196 B(  7-C ,  8-H ) :   1.0998 B(  7-C ,  9-C ) :   1.3792 
B(  9-C , 10-H ) :   0.7556 B( 11-S , 12-O ) :   1.1737 B( 11-S , 13-O ) :   1.1989 
B( 11-S , 14-N ) :   1.3434 B( 14-N , 15-H ) :   0.9470 B( 16-N , 19-H ) :   0.9657 
B( 16-N , 20-H ) :   0.9657 

-------
TIMINGS
-------

Total SCF time: 0 days 0 hours 2 min 35 sec 

Total time                  ....     155.371 sec
Sum of individual times     ....     153.562 sec  ( 98.8%)

Fock matrix formation       ....     147.568 sec  ( 95.0%)
  Split-RI-J                ....       8.989 sec  (  6.1% of F)
  Chain of spheres X        ....     117.627 sec  ( 79.7% of F)
  XC integration            ....      18.782 sec  ( 12.7% of F)
    Basis function eval.    ....       2.405 sec  ( 12.8% of XC)
    Density eval.           ....       4.982 sec  ( 26.5% of XC)
    XC-Functional eval.     ....       0.197 sec  (  1.0% of XC)
    XC-Potential eval.      ....       6.329 sec  ( 33.7% of XC)
Diagonalization             ....       1.116 sec  (  0.7%)
Density matrix formation    ....       0.113 sec  (  0.1%)
Population analysis         ....       0.174 sec  (  0.1%)
Initial guess               ....       1.057 sec  (  0.7%)
Orbital Transformation      ....       0.000 sec  (  0.0%)
Orbital Orthonormalization  ....       0.000 sec  (  0.0%)
DIIS solution               ....       0.599 sec  (  0.4%)
SOSCF solution              ....       0.822 sec  (  0.5%)
Grid generation             ....       2.113 sec  (  1.4%)

Maximum memory used throughout the entire SCF-calculation: 166.6 MB


           ************************************************************
           *        Program running with 8 parallel MPI-processes     *
           *              working on a common directory               *
           ************************************************************

------------------------------------------------------------------------------
                                ORCA  MP2 
------------------------------------------------------------------------------

Freezing NCore=32 chemical core electrons

   <<< Use J-auxbasis for calculation of Separable RI-J derivative contributions (Dim=689) >>> 


-------------
RI-MP2 ENERGY
-------------
Dimension of the basis                    ...  763
Memory devoted to MP2                     ... 3000 MB   
Data format for buffers                   ... DOUBLE
Compression type for matrix containers    ... UNCOMPRESSED
Scaling for aa/bb pairs                   ...   2.500e-01
Scaling for ab pairs                      ...   5.300e-01
Overall scaling of the MP2 energy         ...   1.000e+00
Calculating two index integrals           ... done (    0.041 sec)
Cholesky decomposition of V**-1           ... done (    0.289 sec)

-----------------
RI-TRANSFORMATION (AUX index driven)
-----------------

Dimension of the orbital-basis         ... 763
Dimension of the aux-basis             ... 1727
Transformation of internal/external MOs...   16-  48 to   49- 762
Number Format for Storage              ... Double (8 Byte)
Integral mode                          ... Direct

First Phase: integral generation and transformation of MO indices
  Aux angular momentum 0               ... done (    0.300 sec)
  Aux angular momentum 1               ... done (    0.580 sec)
  Aux angular momentum 2               ... done (    0.776 sec)
  Aux angular momentum 3               ... done (    0.749 sec)
  Aux angular momentum 4               ... done (    0.440 sec)
Closing buffer VIA ( 0.30 GB; CompressionRatio= 1.00)
  Phase 1 completed in     3.122 sec
Second Phase: sorting and transformation of aux index

IA-Transformation
Memory available                       ... 2920 MB 
Max. # MO pairs treated in a batch     ... 5    
# of internal orbitals                 ... 33
# batches for internal orbitals        ... 1
Closing buffer IAV ( 0.30 GB; CompressionRatio= 1.00)
(ia|v) transformation done in     0.647 sec

  Phase 2 completed in     0.824 sec
RI-Integral transformation completed in     3.950 sec
Opening buffers                              ... done

Starting loop over batches of integrals:

Operator 0  - window                       ... ( 16- 48)x( 49-762)
Operator 0  - Memory available             ...  3000 MB
Operator 0  - Memory needed per MO         ...   9.4 MB
Operator 0  - Number of orbitals per batch ... 5
Operator 0  - Number of batches            ... 1

OPERATOR  0   PASS   0:  MOs    16 ...   20 +   21 ...   25 +   26 ...   30 +   31 ...   35
                            +   36 ...   40 +   41 ...   45 +   46 ...   48
  Reading integrals       ... ok
  Internal MO  18
Time spent in pair loops =     0.536 sec
Deleting buffer (Ka|jb)[aa] ...done

-----------------------------------------------
 RI-MP2 CORRELATION ENERGY:     -1.167747240 Eh
-----------------------------------------------


-------
TIMINGS
-------

Total time                :    9.360 sec
Integral trafo            :    3.965 sec ( 42.4%)
I/O of integrals          :    0.015 sec (  0.2%)
K(i,j) Operators          :    0.423 sec (  4.5%)
T(i,j) pair energies      :    0.058 sec (  0.6%)
V-calculation             :    0.041 sec (  0.4%)
V**(-1/2)                 :    0.289 sec (  3.1%)
Gamma(ia|P)               :    0.000 sec (  0.0%)
Gamma-Trafo               :    0.000 sec (  0.0%)
D(virtual)                :    0.000 sec (  0.0%)
D(internal)               :    0.000 sec (  0.0%)
W(virtual)                :    0.000 sec (  0.0%)
W(internal)               :    0.000 sec (  0.0%)
L(virtual)                :    0.000 sec (  0.0%)
L(internal)               :    0.000 sec (  0.0%)
G(D)                      :    0.000 sec (  0.0%)
G(Z)                      :    0.000 sec (  0.0%)
Z-Vector Solution         :    0.000 sec (  0.0%)
3-Index Derivative        :    0.000 sec (  0.0%)
2-Index Derivative        :    0.000 sec (  0.0%)
Separable Gradient (RIJ)  :    0.000 sec (  0.0%)
Separable Gradient (COSX) :    0.000 sec (  0.0%)


---------------------------------------
MP2 TOTAL ENERGY:     -929.318363018 Eh
---------------------------------------

Maximum memory used throughout the entire MP2-calculation: 187.8 MB


-------------------------------------------------------------------------------
                          DFT DISPERSION CORRECTION                            
                                                                               
                              DFTD3 V3.1  Rev 1                                
                          USING Becke-Johnson damping                          
-------------------------------------------------------------------------------
The DSD-PBEP86 functional is recognized
Active option DFTDOPT                   ...         4   

molecular C6(AA) [au] = 5876.582794 


            DFT-D V3
 parameters
 s6 scaling factor         :     0.4180 
 a1 scaling factor         :     0.0000 
 s8 scaling factor         :     0.0000 
 a2 scaling factor         :     5.6500 
 ad hoc parameters k1-k3   :    16.0000     1.3333    -4.0000 

 Edisp/kcal,au: -9.480308004250  -0.015107830853 
 E6   /kcal   :  -9.480308004 
 E8   /kcal   :  -0.000000000 
 % E8         :   0.000000000 

-------------------------   ----------------
Dispersion correction           -0.015107831
-------------------------   ----------------


-------------------------   --------------------
FINAL SINGLE POINT ENERGY      -929.333470848700
-------------------------   --------------------


                            ***************************************
                            *     ORCA property calculations      *
                            ***************************************


  WARNING: The energy has been calculated at the MP2 level but the densities
           used in the property calculations are still SCF densities
           MP2 response densities have not been calculated 
           use %mp2 Density relaxed end
           or  %mp2 Density unrelaxed end

                                    ---------------------
                                    Active property flags
                                    ---------------------
   (+) Dipole Moment


------------------------------------------------------------------------------
                       ORCA ELECTRIC PROPERTIES CALCULATION
------------------------------------------------------------------------------

Dipole Moment Calculation                       ... on
Quadrupole Moment Calculation                   ... off
Polarizability Calculation                      ... off
GBWName                                         ... A.11.avtz.gbw
Electron density                                ... A.11.avtz.scfp
The origin for moment calculation is the CENTER OF MASS  = (-2.622089,  1.092154 -2.782563)

-------------
DIPOLE MOMENT
-------------
                                X             Y             Z
Electronic contribution:      0.25051       2.20537      12.77478
Nuclear contribution   :      0.15258      -2.28879     -16.76566
                        -----------------------------------------
Total Dipole Moment    :      0.40309      -0.08343      -3.99088
                        -----------------------------------------
Magnitude (a.u.)       :      4.01205
Magnitude (Debye)      :     10.19782



--------------------
Rotational spectrum 
--------------------
 
Rotational constants in cm-1:     0.076514     0.013557     0.012882 
Rotational constants in MHz :  2293.843199   406.443020   386.186399 

 Dipole components along the rotational axes: 
x,y,z [a.u.] :    -3.986499    -0.447344    -0.065327 
x,y,z [Debye]:   -10.132875    -1.137058    -0.166048 

 

Timings for individual modules:

Sum of individual times         ...      191.758 sec (=   3.196 min)
GTO integral calculation        ...       12.756 sec (=   0.213 min)   6.7 %
SCF iterations                  ...      161.918 sec (=   2.699 min)  84.4 %
MP2 module                      ...       17.084 sec (=   0.285 min)   8.9 %
                             ****ORCA TERMINATED NORMALLY****
TOTAL RUN TIME: 0 days 0 hours 3 minutes 20 seconds 799 msec
