
                                 *****************
                                 * O   R   C   A *
                                 *****************

                                            #,                                       
                                            ###                                      
                                            ####                                     
                                            #####                                    
                                            ######                                   
                                           ########,                                 
                                     ,,################,,,,,                         
                               ,,#################################,,                 
                          ,,##########################################,,             
                       ,#########################################, ''#####,          
                    ,#############################################,,   '####,        
                  ,##################################################,,,,####,       
                ,###########''''           ''''###############################       
              ,#####''   ,,,,##########,,,,          '''####'''          '####       
            ,##' ,,,,###########################,,,                        '##       
           ' ,,###''''                  '''############,,,                           
         ,,##''                                '''############,,,,        ,,,,,,###''
      ,#''                                            '''#######################'''  
     '                                                          ''''####''''         
             ,#######,   #######,   ,#######,      ##                                
            ,#'     '#,  ##    ##  ,#'     '#,    #''#        ######   ,####,        
            ##       ##  ##   ,#'  ##            #'  '#       #        #'  '#        
            ##       ##  #######   ##           ,######,      #####,   #    #        
            '#,     ,#'  ##    ##  '#,     ,#' ,#      #,         ##   #,  ,#        
             '#######'   ##     ##  '#######'  #'      '#     #####' # '####'        



                  #######################################################
                  #                        -***-                        #
                  #          Department of theory and spectroscopy      #
                  #    Directorship and core code : Frank Neese         #
                  #        Max Planck Institute fuer Kohlenforschung    #
                  #                Kaiser Wilhelm Platz 1               #
                  #                 D-45470 Muelheim/Ruhr               #
                  #                      Germany                        #
                  #                                                     #
                  #                  All rights reserved                #
                  #                        -***-                        #
                  #######################################################


                         Program Version 5.0.3 -  RELEASE  -


 With contributions from (in alphabetic order):
   Daniel Aravena         : Magnetic Suceptibility
   Michael Atanasov       : Ab Initio Ligand Field Theory (pilot matlab implementation)
   Alexander A. Auer      : GIAO ZORA, VPT2 properties, NMR spectrum
   Ute Becker             : Parallelization
   Giovanni Bistoni       : ED, misc. LED, open-shell LED, HFLD
   Martin Brehm           : Molecular dynamics
   Dmytro Bykov           : SCF Hessian
   Vijay G. Chilkuri      : MRCI spin determinant printing, contributions to CSF-ICE
   Dipayan Datta          : RHF DLPNO-CCSD density
   Achintya Kumar Dutta   : EOM-CC, STEOM-CC
   Dmitry Ganyushin       : Spin-Orbit,Spin-Spin,Magnetic field MRCI
   Miquel Garcia          : C-PCM and meta-GGA Hessian, CC/C-PCM, Gaussian charge scheme
   Yang Guo               : DLPNO-NEVPT2, F12-NEVPT2, CIM, IAO-localization
   Andreas Hansen         : Spin unrestricted coupled pair/coupled cluster methods
   Benjamin Helmich-Paris : MC-RPA, TRAH-SCF, COSX integrals
   Lee Huntington         : MR-EOM, pCC
   Robert Izsak           : Overlap fitted RIJCOSX, COSX-SCS-MP3, EOM
   Marcus Kettner         : VPT2
   Christian Kollmar      : KDIIS, OOCD, Brueckner-CCSD(T), CCSD density, CASPT2, CASPT2-K
   Simone Kossmann        : Meta GGA functionals, TD-DFT gradient, OOMP2, MP2 Hessian
   Martin Krupicka        : Initial AUTO-CI
   Lucas Lang             : DCDCAS
   Marvin Lechner         : AUTO-CI (C++ implementation), FIC-MRCC
   Dagmar Lenk            : GEPOL surface, SMD
   Dimitrios Liakos       : Extrapolation schemes; Compound Job, initial MDCI parallelization
   Dimitrios Manganas     : Further ROCIS development; embedding schemes
   Dimitrios Pantazis     : SARC Basis sets
   Anastasios Papadopoulos: AUTO-CI, single reference methods and gradients
   Taras Petrenko         : DFT Hessian,TD-DFT gradient, ASA, ECA, R-Raman, ABS, FL, XAS/XES, NRVS
   Peter Pinski           : DLPNO-MP2, DLPNO-MP2 Gradient
   Christoph Reimann      : Effective Core Potentials
   Marius Retegan         : Local ZFS, SOC
   Christoph Riplinger    : Optimizer, TS searches, QM/MM, DLPNO-CCSD(T), (RO)-DLPNO pert. Triples
   Tobias Risthaus        : Range-separated hybrids, TD-DFT gradient, RPA, STAB
   Michael Roemelt        : Original ROCIS implementation
   Masaaki Saitow         : Open-shell DLPNO-CCSD energy and density
   Barbara Sandhoefer     : DKH picture change effects
   Avijit Sen             : IP-ROCIS
   Kantharuban Sivalingam : CASSCF convergence, NEVPT2, FIC-MRCI
   Bernardo de Souza      : ESD, SOC TD-DFT
   Georgi Stoychev        : AutoAux, RI-MP2 NMR, DLPNO-MP2 response
   Willem Van den Heuvel  : Paramagnetic NMR
   Boris Wezisla          : Elementary symmetry handling
   Frank Wennmohs         : Technical directorship


 We gratefully acknowledge several colleagues who have allowed us to
 interface, adapt or use parts of their codes:
   Stefan Grimme, W. Hujo, H. Kruse, P. Pracht,  : VdW corrections, initial TS optimization,
                  C. Bannwarth, S. Ehlert          DFT functionals, gCP, sTDA/sTD-DF
   Ed Valeev, F. Pavosevic, A. Kumar             : LibInt (2-el integral package), F12 methods
   Garnet Chan, S. Sharma, J. Yang, R. Olivares  : DMRG
   Ulf Ekstrom                                   : XCFun DFT Library
   Mihaly Kallay                                 : mrcc  (arbitrary order and MRCC methods)
   Jiri Pittner, Ondrej Demel                    : Mk-CCSD
   Frank Weinhold                                : gennbo (NPA and NBO analysis)
   Christopher J. Cramer and Donald G. Truhlar   : smd solvation model
   Lars Goerigk                                  : TD-DFT with DH, B97 family of functionals
   V. Asgeirsson, H. Jonsson                     : NEB implementation
   FAccTs GmbH                                   : IRC, NEB, NEB-TS, DLPNO-Multilevel, CI-OPT
                                                   MM, QMMM, 2- and 3-layer-ONIOM, Crystal-QMMM,
                                                   LR-CPCM, SF, NACMEs, symmetry and pop. for TD-DFT,
                                                   nearIR, NL-DFT gradient (VV10), updates on ESD,
                                                   ML-optimized integration grids
   S Lehtola, MJT Oliveira, MAL Marques          : LibXC Library
   Liviu Ungur et al                             : ANISO software


 Your calculation uses the libint2 library for the computation of 2-el integrals
 For citations please refer to: http://libint.valeyev.net

 Your ORCA version has been built with support for libXC version: 5.1.0
 For citations please refer to: https://tddft.org/programs/libxc/

 This ORCA versions uses:
   CBLAS   interface :  Fast vector & matrix operations
   LAPACKE interface :  Fast linear algebra routines
   SCALAPACK package :  Parallel linear algebra routines
   Shared memory     :  Shared parallel matrices
   BLAS/LAPACK       :  OpenBLAS 0.3.15  USE64BITINT DYNAMIC_ARCH NO_AFFINITY SkylakeX SINGLE_THREADED
        Core in use  :  SkylakeX
   Copyright (c) 2011-2014, The OpenBLAS Project


Your calculation utilizes the atom-pairwise dispersion correction
with the Becke-Johnson damping scheme (D3BJ)
Cite in your paper:
S.Grimme, S.Ehrlich, L.Goerigk, J Comput Chem, (2011), 32, 1456–1465 
S.Grimme, J.Antony, S.Ehrlich and H.Krieg, J.Chem.Phys., 132, (2010), 154104 
   

================================================================================

----- Orbital basis set information -----
Your calculation utilizes the basis: aug-cc-pVTZ 
    H, B-Ne : Obtained from the ccRepo (grant-hill.group.shef.ac.uk/ccrepo) Feb. 2017
              R. A. Kendall, T. H. Dunning, Jr., R. J. Harrison, J. Chem. Phys. 96, 6796 (1992)
         He : Obtained from the ccRepo (grant-hill.group.shef.ac.uk/ccrepo) Feb. 2017
              D. E. Woon, T. H. Dunning, Jr., J. Chem. Phys. 100, 2975 (1994)
  Li-Be, Na : Obtained from the ccRepo (grant-hill.group.shef.ac.uk/ccrepo) Feb. 2017
              B. P. Prascher, D. E. Woon, K. A. Peterson, T. H. Dunning, Jr., A. K. Wilson, Theor. Chem. Acc. 128, 69 (2011)
         Mg : Obtained from the Peterson Research Group Website (tyr0.chem.wsu.edu/~kipeters) Feb. 2017
              B. P. Prascher, D. E. Woon, K. A. Peterson, T. H. Dunning, Jr., A. K. Wilson, Theor. Chem. Acc. 128, 69 (2011)
      Al-Ar : Obtained from the ccRepo (grant-hill.group.shef.ac.uk/ccrepo) Feb. 2017
              D. E. Woon, T. H. Dunning, Jr., J. Chem. Phys. 98, 1358 (1993)
      Sc-Zn : Obtained from the ccRepo (grant-hill.group.shef.ac.uk/ccrepo) Feb. 2017
              N. B. Balabanov, K. A. Peterson, J. Chem. Phys. 123, 064107 (2005)
              N. B. Balabanov, K. A. Peterson, J. Chem. Phys. 125, 074110 (2006)
      Ga-Kr : Obtained from the ccRepo (grant-hill.group.shef.ac.uk/ccrepo) Feb. 2017
              A. K. Wilson, D. E. Woon, K. A. Peterson, T. H. Dunning, Jr., J. Chem. Phys. 110, 7667 (1999)
     Ag, Au : Obtained from the Peterson Research Group Website (tyr0.chem.wsu.edu/~kipeters) Feb. 2017
              K. A. Peterson, C. Puzzarini, Theor. Chem. Acc. 114, 283 (2005)

----- AuxJ basis set information -----
Your calculation utilizes the auxiliary basis: def2/J
   F. Weigend, Phys. Chem. Chem. Phys. 8, 1057 (2006).

----- AuxC basis set information -----
Your calculation utilizes the auxiliary basis: aug-cc-pVTZ/C 
  H-He, B-F, Al-Ar, Ga-Kr : Obtained from the EMSL Basis Set Exchange (bse.pnl.gov) Feb. 2017
                            F. Weigend, A. Kohn, C. Hattig, J. Chem. Phys. 116, 3175 (2002)
                   Be, Mg : Obtained from the TURBOMOLE 7.0 basis set library
                            C. Haettig, Phys. Chem. Chem. Phys. 7, 59 (2005)
                       Ne : Obtained from the EMSL Basis Set Exchange (bse.pnl.gov) Feb. 2017
                            C. Haettig, Phys. Chem. Chem. Phys. 7, 59 (2005)
                            F. Weigend, A. Kohn, C. Hattig, J. Chem. Phys. 116, 3175 (2002)
                    Sc-Zn : Obtained from the EMSL Basis Set Exchange (bse.pnl.gov) Feb. 2017
                            J. G. Hill, J. A. Platts, J. Chem. Phys. 128, 044104 (2008)

================================================================================
                                        WARNINGS
                       Please study these warnings very carefully!
================================================================================


WARNING: No MP2 level density has been requested!
         To caclulate MP2 level properties use
         %mp2 Density relaxed end
         or
         %mp2 Density unrelaxed end
         Otherwise for double-hybrid DFT only the energy is correct!

WARNING: There are different parametrizations of Gershom Martin's DSD-DFs
         for use with and without D3(BJ)!
         You are using the D3(BJ) parametrized version,
         consistent with the GMTKN55 benchmark (L. Goerigk et al., PCCP 2017, 19, 32184)

WARNING: The frozen-core approximation is turned on by default for 
         the MP2 part of double-hybrid DFT.

INFO   : the flag for use of the SHARK integral package has been found!

================================================================================
                                       INPUT FILE
================================================================================
NAME = A.12.avtz.com
|  1> !PAL8
|  2> !RI-DSD-PBEP86 D3BJ aug-cc-pVTZ aug-cc-pVTZ/C TightSCF
|  3> %maxcore 3000
|  4> 
|  5> 
|  6> * xyz -1 1
|  7> C -1.3948627481  0.5112027664 -1.0108340718
|  8> C -2.5377321078  0.3193452754 -1.7904495013
|  9> H -3.483582733  0.1343783112 -1.2887754916
| 10> C -2.4458497896  0.3391678774 -3.1766319368
| 11> H -3.3220931785  0.1842618606 -3.7998793776
| 12> C -1.2107697518  0.5546679601 -3.8039759465
| 13> C -1.1510049678  0.5686006439 -5.2898996372
| 14> C -0.0677536334  0.7405138503 -3.0110914177
| 15> H  0.9021169442  0.9000228841 -3.4754945751
| 16> C -0.1590012304  0.7175816563 -1.6244540982
| 17> H  0.7173752165  0.847726442 -0.9960751903
| 18> S -1.5171875986  0.5958370887  0.8070886816
| 19> O -2.7151860065 -0.2346006212  1.0851854225
| 20> O -0.2144610267  0.0583816704  1.2392658427
| 21> N -1.6519989368  2.1084719127  1.1831275853
| 22> H -2.6472042578  2.3332576843  1.122925764
| 23> O -2.145261345  0.4020208543 -5.9780358073
| 24> C  0.1938052516  0.799240188 -5.9597698462
| 25> H  0.9095288984  0.0227368177 -5.6701757081
| 26> H  0.6156658084  1.7644027633 -5.6605115082
| 27> H  0.0508241925  0.7809841139 -7.0410981823
| 28> *
| 29> 
| 30>                          ****END OF INPUT****
================================================================================

                       ****************************
                       * Single Point Calculation *
                       ****************************

---------------------------------
CARTESIAN COORDINATES (ANGSTROEM)
---------------------------------
  C     -1.394863    0.511203   -1.010834
  C     -2.537732    0.319345   -1.790450
  H     -3.483583    0.134378   -1.288775
  C     -2.445850    0.339168   -3.176632
  H     -3.322093    0.184262   -3.799879
  C     -1.210770    0.554668   -3.803976
  C     -1.151005    0.568601   -5.289900
  C     -0.067754    0.740514   -3.011091
  H      0.902117    0.900023   -3.475495
  C     -0.159001    0.717582   -1.624454
  H      0.717375    0.847726   -0.996075
  S     -1.517188    0.595837    0.807089
  O     -2.715186   -0.234601    1.085185
  O     -0.214461    0.058382    1.239266
  N     -1.651999    2.108472    1.183128
  H     -2.647204    2.333258    1.122926
  O     -2.145261    0.402021   -5.978036
  C      0.193805    0.799240   -5.959770
  H      0.909529    0.022737   -5.670176
  H      0.615666    1.764403   -5.660512
  H      0.050824    0.780984   -7.041098

----------------------------
CARTESIAN COORDINATES (A.U.)
----------------------------
  NO LB      ZA    FRAG     MASS         X           Y           Z
   0 C     6.0000    0    12.011   -2.635909    0.966033   -1.910200
   1 C     6.0000    0    12.011   -4.795619    0.603475   -3.383459
   2 H     1.0000    0     1.008   -6.583017    0.253938   -2.435433
   3 C     6.0000    0    12.011   -4.621986    0.640934   -6.002964
   4 H     1.0000    0     1.008   -6.277846    0.348204   -7.180731
   5 C     6.0000    0    12.011   -2.288023    1.048171   -7.188473
   6 C     6.0000    0    12.011   -2.175084    1.074499   -9.996462
   7 C     6.0000    0    12.011   -0.128036    1.399368   -5.690138
   8 H     1.0000    0     1.008    1.704754    1.700797   -6.567733
   9 C     6.0000    0    12.011   -0.300469    1.356033   -3.069773
  10 H     1.0000    0     1.008    1.355643    1.601971   -1.882309
  11 S    16.0000    0    32.060   -2.867069    1.125969    1.525177
  12 O     8.0000    0    15.999   -5.130958   -0.443331    2.050703
  13 O     8.0000    0    15.999   -0.405273    0.110325    2.341873
  14 N     7.0000    0    14.007   -3.121826    3.984434    2.235787
  15 H     1.0000    0     1.008   -5.002491    4.409218    2.122022
  16 O     8.0000    0    15.999   -4.053956    0.759709  -11.296850
  17 C     6.0000    0    12.011    0.366239    1.510345  -11.262333
  18 H     1.0000    0     1.008    1.718761    0.042966  -10.715079
  19 H     1.0000    0     1.008    1.163440    3.334238  -10.696817
  20 H     1.0000    0     1.008    0.096044    1.475846  -13.305747

--------------------------------
INTERNAL COORDINATES (ANGSTROEM)
--------------------------------
 C      0   0   0     0.000000000000     0.00000000     0.00000000
 C      1   0   0     1.396696061464     0.00000000     0.00000000
 H      2   1   0     1.086518750434   118.55381862     0.00000000
 C      2   1   3     1.389365697157   120.05510435   181.34379895
 H      4   2   1     1.086386544051   121.13118926   179.52102117
 C      4   2   1     1.401935623316   120.45846690   359.82700322
 C      6   4   2     1.487190358921   118.94347952   179.97334757
 C      6   4   2     1.403456596349   119.01547846     0.44638316
 H      8   6   4     1.087088939214   120.31108934   179.43195763
 C      8   6   4     1.389825552114   120.53068704   359.70502756
 H     10   8   6     1.086201359703   121.48229330   179.25359116
 S      1   2   3     1.823998211318   120.51897702   354.66483594
 O     12   1   2     1.483969262705   102.41264506    28.12176364
 O     12   1   2     1.474018977616   102.47599936   149.81165600
 N     12   1   2     1.564494635587   106.86985208   266.58569081
 H     15  12   1     1.022050161855   106.40312979    85.93043963
 O      7   6   4     1.220584269318   121.95699048     0.21957207
 C      7   6   4     1.520011586275   118.50929101   180.16799714
 H     18   7   6     1.095026295345   110.74002258    59.77888950
 H     18   7   6     1.095016291662   110.74144261   300.60261332
 H     18   7   6     1.090893137734   108.56237424   180.18300960

---------------------------
INTERNAL COORDINATES (A.U.)
---------------------------
 C      0   0   0     0.000000000000     0.00000000     0.00000000
 C      1   0   0     2.639373048493     0.00000000     0.00000000
 H      2   1   0     2.053222877691   118.55381862     0.00000000
 C      2   1   3     2.625520667491   120.05510435   181.34379895
 H      4   2   1     2.052973043834   121.13118926   179.52102117
 C      4   2   1     2.649274385455   120.45846690   359.82700322
 C      6   4   2     2.810382487369   118.94347952   179.97334757
 C      6   4   2     2.652148607946   119.01547846     0.44638316
 H      8   6   4     2.054300378329   120.31108934   179.43195763
 C      8   6   4     2.626389667422   120.53068704   359.70502756
 H     10   8   6     2.052623096131   121.48229330   179.25359116
 S      1   2   3     3.446857088153   120.51897702   354.66483594
 O     12   1   2     2.804295497670   102.41264506    28.12176364
 O     12   1   2     2.785492183896   102.47599936   149.81165600
 N     12   1   2     2.956466399248   106.86985208   266.58569081
 H     15  12   1     1.931394901036   106.40312979    85.93043963
 O      7   6   4     2.306569992383   121.95699048     0.21957207
 C      7   6   4     2.872405618447   118.50929101   180.16799714
 H     18   7   6     2.069299807645   110.74002258    59.77888950
 H     18   7   6     2.069280903424   110.74144261   300.60261332
 H     18   7   6     2.061489271692   108.56237424   180.18300960

---------------------
BASIS SET INFORMATION
---------------------
There are 5 groups of distinct atoms

 Group   1 Type C   : 19s6p3d2f contracted to 5s4p3d2f pattern {88111/3111/111/11}
 Group   2 Type H   : 6s3p2d contracted to 4s3p2d pattern {3111/111/11}
 Group   3 Type S   : 42s17p3d2f contracted to 6s5p3d2f pattern {131313111/77111/111/11}
 Group   4 Type O   : 19s6p3d2f contracted to 5s4p3d2f pattern {88111/3111/111/11}
 Group   5 Type N   : 19s6p3d2f contracted to 5s4p3d2f pattern {88111/3111/111/11}

Atom   0C    basis set group =>   1
Atom   1C    basis set group =>   1
Atom   2H    basis set group =>   2
Atom   3C    basis set group =>   1
Atom   4H    basis set group =>   2
Atom   5C    basis set group =>   1
Atom   6C    basis set group =>   1
Atom   7C    basis set group =>   1
Atom   8H    basis set group =>   2
Atom   9C    basis set group =>   1
Atom  10H    basis set group =>   2
Atom  11S    basis set group =>   3
Atom  12O    basis set group =>   4
Atom  13O    basis set group =>   4
Atom  14N    basis set group =>   5
Atom  15H    basis set group =>   2
Atom  16O    basis set group =>   4
Atom  17C    basis set group =>   1
Atom  18H    basis set group =>   2
Atom  19H    basis set group =>   2
Atom  20H    basis set group =>   2
---------------------------------
AUXILIARY/J BASIS SET INFORMATION
---------------------------------
There are 5 groups of distinct atoms

 Group   1 Type C   : 12s5p4d2f1g contracted to 6s4p3d1f1g pattern {711111/2111/211/2/1}
 Group   2 Type H   : 5s2p1d contracted to 3s1p1d pattern {311/2/1}
 Group   3 Type S   : 14s5p5d2f1g contracted to 8s4p3d1f1g pattern {71111111/2111/311/2/1}
 Group   4 Type O   : 12s5p4d2f1g contracted to 6s4p3d1f1g pattern {711111/2111/211/2/1}
 Group   5 Type N   : 12s5p4d2f1g contracted to 6s4p3d1f1g pattern {711111/2111/211/2/1}

Atom   0C    basis set group =>   1
Atom   1C    basis set group =>   1
Atom   2H    basis set group =>   2
Atom   3C    basis set group =>   1
Atom   4H    basis set group =>   2
Atom   5C    basis set group =>   1
Atom   6C    basis set group =>   1
Atom   7C    basis set group =>   1
Atom   8H    basis set group =>   2
Atom   9C    basis set group =>   1
Atom  10H    basis set group =>   2
Atom  11S    basis set group =>   3
Atom  12O    basis set group =>   4
Atom  13O    basis set group =>   4
Atom  14N    basis set group =>   5
Atom  15H    basis set group =>   2
Atom  16O    basis set group =>   4
Atom  17C    basis set group =>   1
Atom  18H    basis set group =>   2
Atom  19H    basis set group =>   2
Atom  20H    basis set group =>   2
---------------------------------
AUXILIARY/C BASIS SET INFORMATION
---------------------------------
There are 5 groups of distinct atoms

 Group   1 Type C   : 9s7p6d4f2g contracted to 9s7p6d4f2g pattern {111111111/1111111/111111/1111/11}
 Group   2 Type H   : 5s4p3d2f contracted to 5s4p3d2f pattern {11111/1111/111/11}
 Group   3 Type S   : 11s9p8d6f3g contracted to 11s9p8d6f3g pattern {11111111111/111111111/11111111/111111/111}
 Group   4 Type O   : 9s7p6d4f2g contracted to 9s7p6d4f2g pattern {111111111/1111111/111111/1111/11}
 Group   5 Type N   : 9s7p6d4f2g contracted to 9s7p6d4f2g pattern {111111111/1111111/111111/1111/11}

Atom   0C    basis set group =>   1
Atom   1C    basis set group =>   1
Atom   2H    basis set group =>   2
Atom   3C    basis set group =>   1
Atom   4H    basis set group =>   2
Atom   5C    basis set group =>   1
Atom   6C    basis set group =>   1
Atom   7C    basis set group =>   1
Atom   8H    basis set group =>   2
Atom   9C    basis set group =>   1
Atom  10H    basis set group =>   2
Atom  11S    basis set group =>   3
Atom  12O    basis set group =>   4
Atom  13O    basis set group =>   4
Atom  14N    basis set group =>   5
Atom  15H    basis set group =>   2
Atom  16O    basis set group =>   4
Atom  17C    basis set group =>   1
Atom  18H    basis set group =>   2
Atom  19H    basis set group =>   2
Atom  20H    basis set group =>   2


           ************************************************************
           *        Program running with 8 parallel MPI-processes     *
           *              working on a common directory               *
           ************************************************************
------------------------------------------------------------------------------
                           ORCA GTO INTEGRAL CALCULATION
                           -- RI-GTO INTEGRALS CHOSEN --
------------------------------------------------------------------------------
------------------------------------------------------------------------------
                   ___                                                        
                  /   \      - P O W E R E D   B Y -                         
                 /     \                                                     
                 |  |  |   _    _      __       _____    __    __             
                 |  |  |  | |  | |    /  \     |  _  \  |  |  /  |          
                  \  \/   | |  | |   /    \    | | | |  |  | /  /          
                 / \  \   | |__| |  /  /\  \   | |_| |  |  |/  /          
                |  |  |   |  __  | /  /__\  \  |    /   |      \           
                |  |  |   | |  | | |   __   |  |    \   |  |\   \          
                \     /   | |  | | |  |  |  |  | |\  \  |  | \   \       
                 \___/    |_|  |_| |__|  |__|  |_| \__\ |__|  \__/        
                                                                              
                      - O R C A' S   B I G   F R I E N D -                    
                                      &                                       
                       - I N T E G R A L  F E E D E R -                       
                                                                              
 v1 FN, 2020, v2 2021                                                         
------------------------------------------------------------------------------


Reading SHARK input file A.12.avtz.SHARKINP.tmp ... ok
----------------------
SHARK INTEGRAL PACKAGE
----------------------

Number of atoms                             ...     21
Number of basis functions                   ...    883
Number of shells                            ...    343
Maximum angular momentum                    ...      3
Integral batch strategy                     ... SHARK/LIBINT Hybrid
RI-J (if used) integral strategy            ... SPLIT-RIJ (Revised 2003 algorithm where possible)
Printlevel                                  ...      1
Contraction scheme used                     ... PARTIAL GENERAL contraction
Coulomb Range Separation                    ... NOT USED
Exchange Range Separation                   ... NOT USED
Finite Nucleus Model                        ... NOT USED
Auxiliary Coulomb fitting basis             ... AVAILABLE
   # of basis functions in Aux-J            ...    727
   # of shells in Aux-J                     ...    237
   Maximum angular momentum in Aux-J        ...      4
Auxiliary J/K fitting basis                 ... NOT available
Auxiliary Correlation fitting basis         ... AVAILABLE
   # of basis functions in Aux-C            ...   1787
   # of shells in Aux-C                     ...    485
   Maximum angular momentum in Aux-C        ...      4
Auxiliary 'external' fitting basis          ... NOT available
Integral threshold                          ...     2.500000e-11
Primitive cut-off                           ...     2.500000e-12
Primitive pair pre-selection threshold      ...     2.500000e-12

Calculating pre-screening integrals         ... done (  0.1 sec) Dimension = 343
Calculating pre-screening integrals (ORCA)  ... done (  0.2 sec) Dimension = 256
Organizing shell pair data                  ... done (  0.4 sec)
Shell pair information
Total number of shell pairs                 ...     58996
Shell pairs after pre-screening             ...     43887
Total number of primitive shell pairs       ...     73596
Primitive shell pairs kept                  ...     50872
          la=0 lb=0:   9695 shell pairs
          la=1 lb=0:  11363 shell pairs
          la=1 lb=1:   2991 shell pairs
          la=2 lb=0:   7545 shell pairs
          la=2 lb=1:   3922 shell pairs
          la=2 lb=2:   1342 shell pairs
          la=3 lb=0:   3603 shell pairs
          la=3 lb=1:   1868 shell pairs
          la=3 lb=2:   1250 shell pairs
          la=3 lb=3:    308 shell pairs

Calculating one electron integrals          ... done (  0.1 sec)
Calculating RI/J V-Matrix + Cholesky decomp.... done (  0.0 sec)
Calculating RI/C V-Matrix + Cholesky decomp.... done (  0.2 sec)
Calculating Nuclear repulsion               ... done (  0.0 sec) ENN=    879.071242864749 Eh

SHARK setup successfully completed in   1.5 seconds

Maximum memory used throughout the entire GTOINT-calculation: 81.8 MB


           ************************************************************
           *        Program running with 8 parallel MPI-processes     *
           *              working on a common directory               *
           ************************************************************
-------------------------------------------------------------------------------
                                 ORCA SCF
-------------------------------------------------------------------------------

------------
SCF SETTINGS
------------
Hamiltonian:
 Density Functional     Method          .... DFT(GTOs)
 Exchange Functional    Exchange        .... PBE
   PBE kappa parameter   XKappa         ....  0.804000
   PBE mue parameter    XMuePBE         ....  0.219520
 Correlation Functional Correlation     .... P86
 LDA part of GGA corr.  LDAOpt          .... VWN-5
 Gradients option       PostSCFGGA      .... off
 Hybrid DFT is turned on
   Fraction HF Exchange ScalHFX         ....  0.700000
   Scaling of DF-GGA-X  ScalDFX         ....  0.300000
   Scaling of DF-GGA-C  ScalDFC         ....  0.430000
   Scaling of DF-LDA-C  ScalLDAC        ....  0.430000
   Perturbative correction              ....  1.000000
   Density functional embedding theory  .... OFF
   NL short-range parameter             .... 14.200000
 RI-approximation to the Coulomb term is turned on
   Number of AuxJ basis functions       .... 727
   RIJ-COSX (HFX calculated with COS-X)).... on


General Settings:
 Integral files         IntName         .... A.12.avtz
 Hartree-Fock type      HFTyp           .... RHF
 Total Charge           Charge          ....   -1
 Multiplicity           Mult            ....    1
 Number of Electrons    NEL             ....  104
 Basis Dimension        Dim             ....  786
 Nuclear Repulsion      ENuc            ....    879.0712428647 Eh

Convergence Acceleration:
 DIIS                   CNVDIIS         .... on
   Start iteration      DIISMaxIt       ....    12
   Startup error        DIISStart       ....  0.200000
   # of expansion vecs  DIISMaxEq       ....     5
   Bias factor          DIISBfac        ....   1.050
   Max. coefficient     DIISMaxC        ....  10.000
 Trust-Rad. Augm. Hess. CNVTRAH         .... auto
   Auto Start mean grad. ratio tolernc. ....  1.125000
   Auto Start start iteration           ....    20
   Auto Start num. interpolation iter.  ....    10
   Max. Number of Micro iterations      ....    16
   Max. Number of Macro iterations      .... Maxiter - #DIIS iter
   Number of Davidson start vectors     ....     2
   Converg. threshold I  (grad. norm)   ....   1.000e-05
   Converg. threshold II (energy diff.) ....   1.000e-08
   Grad. Scal. Fac. for Micro threshold ....   0.100
   Minimum threshold for Micro iter.    ....   0.010
   NR start threshold (gradient norm)   ....   0.001
   Initial trust radius                 ....   0.400
   Minimum AH scaling param. (alpha)    ....   1.000
   Maximum AH scaling param. (alpha)    .... 1000.000
   Orbital update algorithm             .... Taylor
   White noise on init. David. guess    .... on
   Maximum white noise                  ....   0.010
   Quad. conv. algorithm                .... NR
 SOSCF                  CNVSOSCF        .... on
   Start iteration      SOSCFMaxIt      ....   150
   Startup grad/error   SOSCFStart      ....  0.003300
 Level Shifting         CNVShift        .... on
   Level shift para.    LevelShift      ....    0.2500
   Turn off err/grad.   ShiftErr        ....    0.0010
 Zerner damping         CNVZerner       .... off
 Static damping         CNVDamp         .... on
   Fraction old density DampFac         ....    0.7000
   Max. Damping (<1)    DampMax         ....    0.9800
   Min. Damping (>=0)   DampMin         ....    0.0000
   Turn off err/grad.   DampErr         ....    0.1000
 Fernandez-Rico         CNVRico         .... off

SCF Procedure:
 Maximum # iterations   MaxIter         ....   125
 SCF integral mode      SCFMode         .... Direct
   Integral package                     .... SHARK and LIBINT hybrid scheme
 Reset frequency        DirectResetFreq ....    20
 Integral Threshold     Thresh          ....  2.500e-11 Eh
 Primitive CutOff       TCut            ....  2.500e-12 Eh

Convergence Tolerance:
 Convergence Check Mode ConvCheckMode   .... Total+1el-Energy
 Convergence forced     ConvForced      .... 0
 Energy Change          TolE            ....  1.000e-08 Eh
 1-El. energy change                    ....  1.000e-05 Eh
 Orbital Gradient       TolG            ....  1.000e-05
 Orbital Rotation angle TolX            ....  1.000e-05
 DIIS Error             TolErr          ....  5.000e-07


Diagonalization of the overlap matrix:
Smallest eigenvalue                        ... 3.794e-07
Time for diagonalization                   ...    0.101 sec
Threshold for overlap eigenvalues          ... 1.000e-08
Number of eigenvalues below threshold      ... 0
Time for construction of square roots      ...    0.057 sec
Total time needed                          ...    0.163 sec

Time for model grid setup =    0.143 sec

------------------------------
INITIAL GUESS: MODEL POTENTIAL
------------------------------
Loading Hartree-Fock densities                     ... done
Calculating cut-offs                               ... done
Initializing the effective Hamiltonian             ... done
Setting up the integral package (SHARK)            ... done
Starting the Coulomb interaction                   ... done (   0.4 sec)
Reading the grid                                   ... done
Mapping shells                                     ... done
Starting the XC term evaluation                    ... done (   0.4 sec)
  promolecular density results
     # of electrons  =    102.996819295
     EX              =    -99.202940122
     EC              =      0.003132892
     EX+EC           =    -99.199807229
Transforming the Hamiltonian                       ... done (   0.0 sec)
Diagonalizing the Hamiltonian                      ... done (   0.1 sec)
Back transforming the eigenvectors                 ... done (   0.0 sec)
Now organizing SCF variables                       ... done
                      ------------------
                      INITIAL GUESS DONE (   1.2 sec)
                      ------------------
-------------------
DFT GRID GENERATION
-------------------

General Integration Accuracy     IntAcc      ... 4.388
Radial Grid Type                 RadialGrid  ... OptM3 with GC (2021)
Angular Grid (max. ang.)         AngularGrid ... 4 (Lebedev-302)
Angular grid pruning method      GridPruning ... 4 (adaptive)
Weight generation scheme         WeightScheme... Becke
Basis function cutoff            BFCut       ... 1.0000e-11
Integration weight cutoff        WCut        ... 1.0000e-14
Angular grids for H and He will be reduced by one unit
Partially contracted basis set               ... off
Rotationally invariant grid construction     ... off

Total number of grid points                  ...   110130
Total number of batches                      ...     1732
Average number of points per batch           ...       63
Average number of grid points per atom       ...     5244
Time for grid setup =    0.633 sec

--------------------
COSX GRID GENERATION
--------------------

GRIDX 1
-------
General Integration Accuracy     IntAcc      ... 3.816
Radial Grid Type                 RadialGrid  ... OptM3 with GC (2021)
Angular Grid (max. ang.)         AngularGrid ... 1 (Lebedev-50)
Angular grid pruning method      GridPruning ... 4 (adaptive)
Weight generation scheme         WeightScheme... Becke
Basis function cutoff            BFCut       ... 1.0000e-11
Integration weight cutoff        WCut        ... 1.0000e-14
Angular grids for H and He will be reduced by one unit
Partially contracted basis set               ... on
Rotationally invariant grid construction     ... off

Total number of grid points                  ...    13754
Total number of batches                      ...      224
Average number of points per batch           ...       61
Average number of grid points per atom       ...      655
UseSFitting                                  ... on

GRIDX 2
-------
General Integration Accuracy     IntAcc      ... 4.020
Radial Grid Type                 RadialGrid  ... OptM3 with GC (2021)
Angular Grid (max. ang.)         AngularGrid ... 2 (Lebedev-110)
Angular grid pruning method      GridPruning ... 4 (adaptive)
Weight generation scheme         WeightScheme... Becke
Basis function cutoff            BFCut       ... 1.0000e-11
Integration weight cutoff        WCut        ... 1.0000e-14
Angular grids for H and He will be reduced by one unit
Partially contracted basis set               ... on
Rotationally invariant grid construction     ... off

Total number of grid points                  ...    33908
Total number of batches                      ...      540
Average number of points per batch           ...       62
Average number of grid points per atom       ...     1615
UseSFitting                                  ... on

GRIDX 3
-------
General Integration Accuracy     IntAcc      ... 4.338
Radial Grid Type                 RadialGrid  ... OptM3 with GC (2021)
Angular Grid (max. ang.)         AngularGrid ... 3 (Lebedev-194)
Angular grid pruning method      GridPruning ... 4 (adaptive)
Weight generation scheme         WeightScheme... Becke
Basis function cutoff            BFCut       ... 1.0000e-11
Integration weight cutoff        WCut        ... 1.0000e-14
Angular grids for H and He will be reduced by one unit
Partially contracted basis set               ... on
Rotationally invariant grid construction     ... off

Total number of grid points                  ...    75345
Total number of batches                      ...     1187
Average number of points per batch           ...       63
Average number of grid points per atom       ...     3588
UseSFitting                                  ... on

Time for X-Grid setup             =    1.378 sec

 re-compute Schwartz prescreening matrix in partically contracted basis (1) ...done (   0.099 sec)
--------------
SCF ITERATIONS
--------------
ITER       Energy         Delta-E        Max-DP      RMS-DP      [F,P]     Damp
               ***  Starting incremental Fock matrix formation  ***
  0   -985.4664999491   0.000000000000 0.35294976  0.00270187  0.3313931 0.7000
  1   -985.6794043003  -0.212904351241 0.25447376  0.00203966  0.1812515 0.7000
                               ***Turning on DIIS***
  2   -985.7841448568  -0.104740556494 0.40736977  0.00385398  0.0826900 0.0000
  3   -985.9606892130  -0.176544356162 0.23177681  0.00140547  0.0801266 0.0000
  4   -985.9855722782  -0.024883065227 0.02543602  0.00028960  0.0075701 0.0000
  5   -985.9863350273  -0.000762749077 0.01521733  0.00011933  0.0054438 0.0000
                      *** Initiating the SOSCF procedure ***
                           *** Shutting down DIIS ***
                      *** Re-Reading the Fockian *** 
                      *** Removing any level shift *** 
ITER      Energy       Delta-E        Grad      Rot      Max-DP    RMS-DP
  6   -985.98649550  -0.0001604689  0.000469  0.000469  0.006628  0.000071
               *** Restarting incremental Fock matrix formation ***
  7   -985.98657634  -0.0000808441  0.000246  0.000701  0.092233  0.001048
  8   -985.98658546  -0.0000091159  0.000130  0.000642  0.055615  0.000450
  9   -985.98658704  -0.0000015825  0.000066  0.000180  0.030184  0.000301
 10   -985.98658787  -0.0000008285  0.000010  0.000041  0.034118  0.000190
 11   -985.98658790  -0.0000000289  0.000007  0.000022  0.008231  0.000065
                  ***Gradient check signals convergence***
              ***Rediagonalizing the Fockian in SOSCF/NRSCF***

               *****************************************************
               *                     SUCCESS                       *
               *           SCF CONVERGED AFTER  12 CYCLES          *
               *****************************************************

Old exchange energy                            =    -70.705484283 Eh
New exchange energy                            =    -70.705437516 Eh
Exchange energy change after final integration =      0.000046766 Eh
Total energy after final integration           =   -985.986541135 Eh
Final COS-X integration done in                =    23.905 sec

----------------
TOTAL SCF ENERGY
----------------

Total Energy       :         -985.98654114 Eh          -26830.05780 eV

Components:
Nuclear Repulsion  :          879.07124286 Eh           23920.74463 eV
Electronic Energy  :        -1865.05778400 Eh          -50750.80242 eV
One Electron Energy:        -3112.79043631 Eh          -84703.33401 eV
Two Electron Energy:         1247.73265231 Eh           33952.53158 eV
Max COSX asymmetry :            0.00001674 Eh               0.00046 eV

Virial components:
Potential Energy   :        -1969.14190077 Eh          -53583.07523 eV
Kinetic Energy     :          983.15535964 Eh           26753.01743 eV
Virial Ratio       :            2.00287969


DFT components:
N(Alpha)           :       52.000149466228 electrons
N(Beta)            :       52.000149466228 electrons
N(Total)           :      104.000298932456 electrons
E(X)               :      -30.198859705632 Eh       
E(C)               :       -1.718771412812 Eh       
E(XC)              :      -31.917631118444 Eh       
DFET-embed. en.    :        0.000000000000 Eh       

---------------
SCF CONVERGENCE
---------------

  Last Energy change         ...   -5.4509e-09  Tolerance :   1.0000e-08
  Last MAX-Density change    ...    5.1070e-15  Tolerance :   1.0000e-07
  Last RMS-Density change    ...    1.7686e-17  Tolerance :   5.0000e-09
  Last Orbital Gradient      ...    1.8553e-06  Tolerance :   1.0000e-05
  Last Orbital Rotation      ...    7.0235e-06  Tolerance :   1.0000e-05

             **** THE GBW FILE WAS UPDATED (A.12.avtz.gbw) ****
             **** DENSITY A.12.avtz.scfp WAS UPDATED ****
             **** ENERGY FILE WAS UPDATED (A.12.avtz.en.tmp) ****
             **** THE GBW FILE WAS UPDATED (A.12.avtz.gbw) ****
             **** DENSITY A.12.avtz.scfp WAS UPDATED ****
----------------
ORBITAL ENERGIES
----------------

  NO   OCC          E(Eh)            E(eV) 
   0   2.0000     -90.848256     -2472.1067 
   1   2.0000     -19.918161      -542.0007 
   2   2.0000     -19.830438      -539.6137 
   3   2.0000     -19.828888      -539.5715 
   4   2.0000     -14.889051      -405.1517 
   5   2.0000     -10.841258      -295.0056 
   6   2.0000     -10.753875      -292.6278 
   7   2.0000     -10.748110      -292.4709 
   8   2.0000     -10.744645      -292.3767 
   9   2.0000     -10.741158      -292.2818 
  10   2.0000     -10.741100      -292.2802 
  11   2.0000     -10.730280      -291.9858 
  12   2.0000     -10.729854      -291.9742 
  13   2.0000      -8.590091      -233.7482 
  14   2.0000      -6.376417      -173.5111 
  15   2.0000      -6.374576      -173.4610 
  16   2.0000      -6.373639      -173.4355 
  17   2.0000      -1.169676       -31.8285 
  18   2.0000      -1.139860       -31.0172 
  19   2.0000      -1.024437       -27.8763 
  20   2.0000      -0.950567       -25.8662 
  21   2.0000      -0.882992       -24.0274 
  22   2.0000      -0.853809       -23.2333 
  23   2.0000      -0.821491       -22.3539 
  24   2.0000      -0.807372       -21.9697 
  25   2.0000      -0.687010       -18.6945 
  26   2.0000      -0.648402       -17.6439 
  27   2.0000      -0.593974       -16.1629 
  28   2.0000      -0.576201       -15.6792 
  29   2.0000      -0.526242       -14.3198 
  30   2.0000      -0.486217       -13.2306 
  31   2.0000      -0.478038       -13.0081 
  32   2.0000      -0.464796       -12.6477 
  33   2.0000      -0.458297       -12.4709 
  34   2.0000      -0.441182       -12.0052 
  35   2.0000      -0.430670       -11.7191 
  36   2.0000      -0.428854       -11.6697 
  37   2.0000      -0.412225       -11.2172 
  38   2.0000      -0.392646       -10.6845 
  39   2.0000      -0.380896       -10.3647 
  40   2.0000      -0.378218       -10.2918 
  41   2.0000      -0.346279        -9.4227 
  42   2.0000      -0.335447        -9.1280 
  43   2.0000      -0.296680        -8.0731 
  44   2.0000      -0.270007        -7.3473 
  45   2.0000      -0.263903        -7.1812 
  46   2.0000      -0.248949        -6.7742 
  47   2.0000      -0.234548        -6.3824 
  48   2.0000      -0.214317        -5.8319 
  49   2.0000      -0.210888        -5.7385 
  50   2.0000      -0.197546        -5.3755 
  51   2.0000      -0.158840        -4.3223 
  52   0.0000       0.082218         2.2373 
  53   0.0000       0.100252         2.7280 
  54   0.0000       0.101499         2.7619 
  55   0.0000       0.107418         2.9230 
  56   0.0000       0.116632         3.1737 
  57   0.0000       0.123843         3.3699 
  58   0.0000       0.127116         3.4590 
  59   0.0000       0.133928         3.6444 
  60   0.0000       0.139372         3.7925 
  61   0.0000       0.147528         4.0144 
  62   0.0000       0.160279         4.3614 
  63   0.0000       0.166059         4.5187 
  64   0.0000       0.168254         4.5784 
  65   0.0000       0.170993         4.6530 
  66   0.0000       0.173869         4.7312 
  67   0.0000       0.182388         4.9630 
  68   0.0000       0.183781         5.0009 
  69   0.0000       0.193259         5.2588 
  70   0.0000       0.193661         5.2698 
  71   0.0000       0.198132         5.3914 
  72   0.0000       0.204418         5.5625 
  73   0.0000       0.205777         5.5995 
  74   0.0000       0.207165         5.6373 
  75   0.0000       0.214265         5.8305 
  76   0.0000       0.216189         5.8828 
  77   0.0000       0.220021         5.9871 
  78   0.0000       0.226388         6.1603 
  79   0.0000       0.229588         6.2474 
  80   0.0000       0.232885         6.3371 
  81   0.0000       0.234726         6.3872 
  82   0.0000       0.240091         6.5332 
  83   0.0000       0.246485         6.7072 
  84   0.0000       0.249602         6.7920 
  85   0.0000       0.254142         6.9156 
  86   0.0000       0.260328         7.0839 
  87   0.0000       0.266989         7.2651 
  88   0.0000       0.268699         7.3117 
  89   0.0000       0.278950         7.5906 
  90   0.0000       0.281596         7.6626 
  91   0.0000       0.289377         7.8744 
  92   0.0000       0.295545         8.0422 
  93   0.0000       0.302881         8.2418 
  94   0.0000       0.302992         8.2448 
  95   0.0000       0.310407         8.4466 
  96   0.0000       0.312302         8.4982 
  97   0.0000       0.315056         8.5731 
  98   0.0000       0.325115         8.8468 
  99   0.0000       0.326566         8.8863 
 100   0.0000       0.330880         9.0037 
 101   0.0000       0.333473         9.0743 
 102   0.0000       0.336953         9.1690 
 103   0.0000       0.341542         9.2938 
 104   0.0000       0.346269         9.4225 
 105   0.0000       0.352196         9.5837 
 106   0.0000       0.356389         9.6978 
 107   0.0000       0.360043         9.7973 
 108   0.0000       0.367218         9.9925 
 109   0.0000       0.370537        10.0828 
 110   0.0000       0.371569        10.1109 
 111   0.0000       0.377998        10.2858 
 112   0.0000       0.379450        10.3254 
 113   0.0000       0.382900        10.4192 
 114   0.0000       0.385008        10.4766 
 115   0.0000       0.386226        10.5097 
 116   0.0000       0.389642        10.6027 
 117   0.0000       0.391758        10.6603 
 118   0.0000       0.395827        10.7710 
 119   0.0000       0.398400        10.8410 
 120   0.0000       0.404519        11.0075 
 121   0.0000       0.407334        11.0841 
 122   0.0000       0.410044        11.1579 
 123   0.0000       0.416384        11.3304 
 124   0.0000       0.423339        11.5196 
 125   0.0000       0.425034        11.5658 
 126   0.0000       0.431403        11.7391 
 127   0.0000       0.434542        11.8245 
 128   0.0000       0.438180        11.9235 
 129   0.0000       0.441350        12.0097 
 130   0.0000       0.451880        12.2963 
 131   0.0000       0.455285        12.3889 
 132   0.0000       0.456899        12.4329 
 133   0.0000       0.460027        12.5180 
 134   0.0000       0.463681        12.6174 
 135   0.0000       0.467859        12.7311 
 136   0.0000       0.470507        12.8031 
 137   0.0000       0.474532        12.9127 
 138   0.0000       0.488624        13.2961 
 139   0.0000       0.493815        13.4374 
 140   0.0000       0.495308        13.4780 
 141   0.0000       0.497284        13.5318 
 142   0.0000       0.500784        13.6270 
 143   0.0000       0.508834        13.8461 
 144   0.0000       0.513771        13.9804 
 145   0.0000       0.520290        14.1578 
 146   0.0000       0.523350        14.2411 
 147   0.0000       0.526787        14.3346 
 148   0.0000       0.530435        14.4339 
 149   0.0000       0.533263        14.5108 
 150   0.0000       0.542097        14.7512 
 151   0.0000       0.544423        14.8145 
 152   0.0000       0.546257        14.8644 
 153   0.0000       0.554259        15.0822 
 154   0.0000       0.556341        15.1388 
 155   0.0000       0.557135        15.1604 
 156   0.0000       0.561413        15.2768 
 157   0.0000       0.565380        15.3848 
 158   0.0000       0.572729        15.5847 
 159   0.0000       0.573667        15.6103 
 160   0.0000       0.579860        15.7788 
 161   0.0000       0.586126        15.9493 
 162   0.0000       0.586478        15.9589 
 163   0.0000       0.588127        16.0037 
 164   0.0000       0.591428        16.0936 
 165   0.0000       0.598063        16.2741 
 166   0.0000       0.604003        16.4358 
 167   0.0000       0.608328        16.5534 
 168   0.0000       0.612719        16.6729 
 169   0.0000       0.617425        16.8010 
 170   0.0000       0.621009        16.8985 
 171   0.0000       0.623715        16.9721 
 172   0.0000       0.629580        17.1318 
 173   0.0000       0.636714        17.3259 
 174   0.0000       0.638864        17.3844 
 175   0.0000       0.643659        17.5149 
 176   0.0000       0.645909        17.5761 
 177   0.0000       0.651989        17.7415 
 178   0.0000       0.657919        17.9029 
 179   0.0000       0.666950        18.1486 
 180   0.0000       0.673872        18.3370 
 181   0.0000       0.683611        18.6020 
 182   0.0000       0.688243        18.7280 
 183   0.0000       0.692243        18.8369 
 184   0.0000       0.704147        19.1608 
 185   0.0000       0.706515        19.2253 
 186   0.0000       0.709064        19.2946 
 187   0.0000       0.716457        19.4958 
 188   0.0000       0.725322        19.7370 
 189   0.0000       0.732066        19.9205 
 190   0.0000       0.732955        19.9447 
 191   0.0000       0.735601        20.0167 
 192   0.0000       0.749073        20.3833 
 193   0.0000       0.755000        20.5446 
 194   0.0000       0.761076        20.7099 
 195   0.0000       0.768813        20.9205 
 196   0.0000       0.775382        21.0992 
 197   0.0000       0.782385        21.2898 
 198   0.0000       0.786067        21.3900 
 199   0.0000       0.791619        21.5410 
 200   0.0000       0.797037        21.6885 
 201   0.0000       0.805641        21.9226 
 202   0.0000       0.812921        22.1207 
 203   0.0000       0.816908        22.2292 
 204   0.0000       0.818523        22.2732 
 205   0.0000       0.824980        22.4489 
 206   0.0000       0.828988        22.5579 
 207   0.0000       0.838387        22.8137 
 208   0.0000       0.842023        22.9126 
 209   0.0000       0.844980        22.9931 
 210   0.0000       0.857622        23.3371 
 211   0.0000       0.859905        23.3992 
 212   0.0000       0.863663        23.5015 
 213   0.0000       0.871033        23.7020 
 214   0.0000       0.879565        23.9342 
 215   0.0000       0.886796        24.1310 
 216   0.0000       0.894782        24.3482 
 217   0.0000       0.896319        24.3901 
 218   0.0000       0.898323        24.4446 
 219   0.0000       0.905356        24.6360 
 220   0.0000       0.918286        24.9878 
 221   0.0000       0.922865        25.1124 
 222   0.0000       0.927076        25.2270 
 223   0.0000       0.931289        25.3417 
 224   0.0000       0.938868        25.5479 
 225   0.0000       0.939996        25.5786 
 226   0.0000       0.945422        25.7262 
 227   0.0000       0.945812        25.7368 
 228   0.0000       0.950452        25.8631 
 229   0.0000       0.951870        25.9017 
 230   0.0000       0.957341        26.0506 
 231   0.0000       0.964476        26.2447 
 232   0.0000       0.970145        26.3990 
 233   0.0000       0.974369        26.5139 
 234   0.0000       0.985082        26.8055 
 235   0.0000       0.987474        26.8705 
 236   0.0000       0.992442        27.0057 
 237   0.0000       0.998917        27.1819 
 238   0.0000       0.999666        27.2023 
 239   0.0000       1.012550        27.5529 
 240   0.0000       1.015299        27.6277 
 241   0.0000       1.020815        27.7778 
 242   0.0000       1.023252        27.8441 
 243   0.0000       1.029438        28.0124 
 244   0.0000       1.035295        28.1718 
 245   0.0000       1.042302        28.3625 
 246   0.0000       1.046538        28.4778 
 247   0.0000       1.048336        28.5267 
 248   0.0000       1.053235        28.6600 
 249   0.0000       1.054869        28.7044 
 250   0.0000       1.059539        28.8315 
 251   0.0000       1.063467        28.9384 
 252   0.0000       1.072263        29.1778 
 253   0.0000       1.075412        29.2634 
 254   0.0000       1.083812        29.4920 
 255   0.0000       1.089320        29.6419 
 256   0.0000       1.093218        29.7480 
 257   0.0000       1.100222        29.9386 
 258   0.0000       1.105162        30.0730 
 259   0.0000       1.109093        30.1800 
 260   0.0000       1.109952        30.2033 
 261   0.0000       1.113673        30.3046 
 262   0.0000       1.124005        30.5857 
 263   0.0000       1.131580        30.7919 
 264   0.0000       1.132573        30.8189 
 265   0.0000       1.138650        30.9842 
 266   0.0000       1.139569        31.0092 
 267   0.0000       1.148234        31.2450 
 268   0.0000       1.154824        31.4244 
 269   0.0000       1.155998        31.4563 
 270   0.0000       1.164419        31.6855 
 271   0.0000       1.168783        31.8042 
 272   0.0000       1.169601        31.8264 
 273   0.0000       1.174859        31.9695 
 274   0.0000       1.181970        32.1630 
 275   0.0000       1.183809        32.2131 
 276   0.0000       1.188232        32.3334 
 277   0.0000       1.192971        32.4624 
 278   0.0000       1.201960        32.7070 
 279   0.0000       1.207504        32.8578 
 280   0.0000       1.210680        32.9443 
 281   0.0000       1.211681        32.9715 
 282   0.0000       1.221139        33.2289 
 283   0.0000       1.227066        33.3902 
 284   0.0000       1.230238        33.4765 
 285   0.0000       1.234714        33.5983 
 286   0.0000       1.239700        33.7340 
 287   0.0000       1.240402        33.7531 
 288   0.0000       1.242638        33.8139 
 289   0.0000       1.249894        34.0113 
 290   0.0000       1.253202        34.1014 
 291   0.0000       1.257824        34.2271 
 292   0.0000       1.261481        34.3266 
 293   0.0000       1.269653        34.5490 
 294   0.0000       1.273438        34.6520 
 295   0.0000       1.280251        34.8374 
 296   0.0000       1.285166        34.9711 
 297   0.0000       1.294608        35.2281 
 298   0.0000       1.298546        35.3352 
 299   0.0000       1.307246        35.5720 
 300   0.0000       1.309779        35.6409 
 301   0.0000       1.323589        36.0167 
 302   0.0000       1.325986        36.0819 
 303   0.0000       1.334383        36.3104 
 304   0.0000       1.341632        36.5077 
 305   0.0000       1.346640        36.6439 
 306   0.0000       1.350870        36.7590 
 307   0.0000       1.356372        36.9088 
 308   0.0000       1.361195        37.0400 
 309   0.0000       1.372151        37.3381 
 310   0.0000       1.373380        37.3716 
 311   0.0000       1.380976        37.5783 
 312   0.0000       1.387032        37.7430 
 313   0.0000       1.398187        38.0466 
 314   0.0000       1.405091        38.2345 
 315   0.0000       1.412048        38.4238 
 316   0.0000       1.422652        38.7123 
 317   0.0000       1.424891        38.7733 
 318   0.0000       1.430207        38.9179 
 319   0.0000       1.434849        39.0442 
 320   0.0000       1.446229        39.3539 
 321   0.0000       1.454651        39.5831 
 322   0.0000       1.458531        39.6887 
 323   0.0000       1.468963        39.9725 
 324   0.0000       1.477330        40.2002 
 325   0.0000       1.485188        40.4140 
 326   0.0000       1.492160        40.6037 
 327   0.0000       1.495591        40.6971 
 328   0.0000       1.503217        40.9046 
 329   0.0000       1.508817        41.0570 
 330   0.0000       1.523036        41.4439 
 331   0.0000       1.524844        41.4931 
 332   0.0000       1.534903        41.7668 
 333   0.0000       1.538088        41.8535 
 334   0.0000       1.552927        42.2573 
 335   0.0000       1.556154        42.3451 
 336   0.0000       1.557949        42.3940 
 337   0.0000       1.566726        42.6328 
 338   0.0000       1.572630        42.7934 
 339   0.0000       1.588174        43.2164 
 340   0.0000       1.591386        43.3038 
 341   0.0000       1.608834        43.7786 
 342   0.0000       1.610922        43.8354 
 343   0.0000       1.623865        44.1876 
 344   0.0000       1.628190        44.3053 
 345   0.0000       1.634321        44.4721 
 346   0.0000       1.641826        44.6764 
 347   0.0000       1.646576        44.8056 
 348   0.0000       1.649366        44.8815 
 349   0.0000       1.663440        45.2645 
 350   0.0000       1.673752        45.5451 
 351   0.0000       1.679400        45.6988 
 352   0.0000       1.684206        45.8296 
 353   0.0000       1.693389        46.0795 
 354   0.0000       1.696419        46.1619 
 355   0.0000       1.700523        46.2736 
 356   0.0000       1.712709        46.6052 
 357   0.0000       1.719731        46.7962 
 358   0.0000       1.724019        46.9129 
 359   0.0000       1.737994        47.2932 
 360   0.0000       1.741919        47.4000 
 361   0.0000       1.755720        47.7756 
 362   0.0000       1.761935        47.9447 
 363   0.0000       1.764155        48.0051 
 364   0.0000       1.766369        48.0654 
 365   0.0000       1.786220        48.6055 
 366   0.0000       1.788380        48.6643 
 367   0.0000       1.801854        49.0309 
 368   0.0000       1.815185        49.3937 
 369   0.0000       1.820755        49.5453 
 370   0.0000       1.829601        49.7860 
 371   0.0000       1.833812        49.9006 
 372   0.0000       1.838504        50.0282 
 373   0.0000       1.843459        50.1631 
 374   0.0000       1.855685        50.4957 
 375   0.0000       1.864036        50.7230 
 376   0.0000       1.873126        50.9704 
 377   0.0000       1.878315        51.1116 
 378   0.0000       1.888820        51.3974 
 379   0.0000       1.896928        51.6180 
 380   0.0000       1.901115        51.7320 
 381   0.0000       1.912877        52.0520 
 382   0.0000       1.919109        52.2216 
 383   0.0000       1.924054        52.3562 
 384   0.0000       1.936653        52.6990 
 385   0.0000       1.950102        53.0650 
 386   0.0000       1.967778        53.5459 
 387   0.0000       1.970676        53.6248 
 388   0.0000       1.975124        53.7459 
 389   0.0000       1.987411        54.0802 
 390   0.0000       1.989930        54.1487 
 391   0.0000       1.998062        54.3700 
 392   0.0000       2.001116        54.4531 
 393   0.0000       2.003387        54.5149 
 394   0.0000       2.021362        55.0041 
 395   0.0000       2.033467        55.3335 
 396   0.0000       2.039595        55.5002 
 397   0.0000       2.044304        55.6283 
 398   0.0000       2.055979        55.9460 
 399   0.0000       2.065634        56.2088 
 400   0.0000       2.068863        56.2966 
 401   0.0000       2.072277        56.3895 
 402   0.0000       2.090271        56.8792 
 403   0.0000       2.096616        57.0518 
 404   0.0000       2.102438        57.2102 
 405   0.0000       2.114125        57.5283 
 406   0.0000       2.119521        57.6751 
 407   0.0000       2.133558        58.0571 
 408   0.0000       2.135460        58.1088 
 409   0.0000       2.139980        58.2318 
 410   0.0000       2.146430        58.4073 
 411   0.0000       2.156200        58.6732 
 412   0.0000       2.160762        58.7973 
 413   0.0000       2.165917        58.9376 
 414   0.0000       2.175454        59.1971 
 415   0.0000       2.190131        59.5965 
 416   0.0000       2.211801        60.1862 
 417   0.0000       2.216361        60.3102 
 418   0.0000       2.225960        60.5714 
 419   0.0000       2.231958        60.7347 
 420   0.0000       2.235645        60.8350 
 421   0.0000       2.238246        60.9058 
 422   0.0000       2.252987        61.3069 
 423   0.0000       2.260860        61.5211 
 424   0.0000       2.264365        61.6165 
 425   0.0000       2.271148        61.8011 
 426   0.0000       2.278877        62.0114 
 427   0.0000       2.284320        62.1595 
 428   0.0000       2.295448        62.4623 
 429   0.0000       2.317521        63.0630 
 430   0.0000       2.321571        63.1732 
 431   0.0000       2.323812        63.2341 
 432   0.0000       2.344290        63.7914 
 433   0.0000       2.349863        63.9430 
 434   0.0000       2.360842        64.2418 
 435   0.0000       2.372605        64.5619 
 436   0.0000       2.388193        64.9860 
 437   0.0000       2.394664        65.1621 
 438   0.0000       2.397908        65.2504 
 439   0.0000       2.408857        65.5483 
 440   0.0000       2.418689        65.8159 
 441   0.0000       2.426713        66.0342 
 442   0.0000       2.435031        66.2606 
 443   0.0000       2.445840        66.5547 
 444   0.0000       2.448408        66.6246 
 445   0.0000       2.454091        66.7792 
 446   0.0000       2.466235        67.1097 
 447   0.0000       2.468728        67.1775 
 448   0.0000       2.484108        67.5960 
 449   0.0000       2.486162        67.6519 
 450   0.0000       2.505881        68.1885 
 451   0.0000       2.513067        68.3840 
 452   0.0000       2.514400        68.4203 
 453   0.0000       2.540458        69.1294 
 454   0.0000       2.546516        69.2942 
 455   0.0000       2.556162        69.5567 
 456   0.0000       2.565443        69.8092 
 457   0.0000       2.575614        70.0860 
 458   0.0000       2.580379        70.2157 
 459   0.0000       2.594218        70.5922 
 460   0.0000       2.597305        70.6763 
 461   0.0000       2.611976        71.0755 
 462   0.0000       2.617087        71.2145 
 463   0.0000       2.624018        71.4032 
 464   0.0000       2.628053        71.5130 
 465   0.0000       2.637625        71.7734 
 466   0.0000       2.651034        72.1383 
 467   0.0000       2.668747        72.6203 
 468   0.0000       2.677391        72.8555 
 469   0.0000       2.684370        73.0454 
 470   0.0000       2.694122        73.3108 
 471   0.0000       2.705723        73.6265 
 472   0.0000       2.713919        73.8495 
 473   0.0000       2.738767        74.5256 
 474   0.0000       2.747150        74.7537 
 475   0.0000       2.765662        75.2575 
 476   0.0000       2.784434        75.7683 
 477   0.0000       2.795340        76.0651 
 478   0.0000       2.800073        76.1939 
 479   0.0000       2.818293        76.6897 
 480   0.0000       2.827000        76.9266 
 481   0.0000       2.836757        77.1921 
 482   0.0000       2.842480        77.3478 
 483   0.0000       2.854468        77.6740 
 484   0.0000       2.861549        77.8667 
 485   0.0000       2.880676        78.3872 
 486   0.0000       2.903105        78.9975 
 487   0.0000       2.910879        79.2090 
 488   0.0000       2.918162        79.4072 
 489   0.0000       2.929883        79.7262 
 490   0.0000       2.955323        80.4184 
 491   0.0000       2.961092        80.5754 
 492   0.0000       2.981580        81.1329 
 493   0.0000       2.985998        81.2531 
 494   0.0000       3.000625        81.6511 
 495   0.0000       3.006453        81.8097 
 496   0.0000       3.018159        82.1283 
 497   0.0000       3.030838        82.4733 
 498   0.0000       3.046163        82.8903 
 499   0.0000       3.065108        83.4058 
 500   0.0000       3.081439        83.8502 
 501   0.0000       3.087533        84.0160 
 502   0.0000       3.118119        84.8483 
 503   0.0000       3.153707        85.8167 
 504   0.0000       3.168506        86.2194 
 505   0.0000       3.171873        86.3110 
 506   0.0000       3.192763        86.8795 
 507   0.0000       3.215781        87.5058 
 508   0.0000       3.230348        87.9022 
 509   0.0000       3.231707        87.9392 
 510   0.0000       3.247352        88.3649 
 511   0.0000       3.271980        89.0351 
 512   0.0000       3.277841        89.1946 
 513   0.0000       3.290375        89.5356 
 514   0.0000       3.312671        90.1424 
 515   0.0000       3.318793        90.3090 
 516   0.0000       3.350318        91.1668 
 517   0.0000       3.356870        91.3451 
 518   0.0000       3.367202        91.6262 
 519   0.0000       3.381672        92.0200 
 520   0.0000       3.385232        92.1168 
 521   0.0000       3.397742        92.4573 
 522   0.0000       3.406776        92.7031 
 523   0.0000       3.427068        93.2552 
 524   0.0000       3.429827        93.3303 
 525   0.0000       3.437634        93.5428 
 526   0.0000       3.446008        93.7706 
 527   0.0000       3.460683        94.1700 
 528   0.0000       3.469297        94.4044 
 529   0.0000       3.480037        94.6966 
 530   0.0000       3.483140        94.7811 
 531   0.0000       3.499298        95.2207 
 532   0.0000       3.515026        95.6487 
 533   0.0000       3.521495        95.8247 
 534   0.0000       3.529235        96.0354 
 535   0.0000       3.540755        96.3489 
 536   0.0000       3.544618        96.4540 
 537   0.0000       3.564470        96.9942 
 538   0.0000       3.571555        97.1869 
 539   0.0000       3.574247        97.2602 
 540   0.0000       3.586207        97.5856 
 541   0.0000       3.591784        97.7374 
 542   0.0000       3.603037        98.0436 
 543   0.0000       3.622764        98.5804 
 544   0.0000       3.632944        98.8574 
 545   0.0000       3.638825        99.0175 
 546   0.0000       3.646781        99.2340 
 547   0.0000       3.660538        99.6083 
 548   0.0000       3.662482        99.6612 
 549   0.0000       3.671856        99.9163 
 550   0.0000       3.680627       100.1550 
 551   0.0000       3.700606       100.6986 
 552   0.0000       3.702228       100.7427 
 553   0.0000       3.716934       101.1429 
 554   0.0000       3.721588       101.2696 
 555   0.0000       3.731226       101.5318 
 556   0.0000       3.738584       101.7320 
 557   0.0000       3.763388       102.4070 
 558   0.0000       3.787402       103.0605 
 559   0.0000       3.797623       103.3386 
 560   0.0000       3.806988       103.5934 
 561   0.0000       3.822612       104.0186 
 562   0.0000       3.829774       104.2135 
 563   0.0000       3.839220       104.4705 
 564   0.0000       3.859374       105.0189 
 565   0.0000       3.861520       105.0773 
 566   0.0000       3.874533       105.4314 
 567   0.0000       3.881379       105.6177 
 568   0.0000       3.886914       105.7683 
 569   0.0000       3.896368       106.0256 
 570   0.0000       3.901057       106.1532 
 571   0.0000       3.902595       106.1950 
 572   0.0000       3.915719       106.5521 
 573   0.0000       3.933189       107.0275 
 574   0.0000       3.948382       107.4409 
 575   0.0000       3.958075       107.7047 
 576   0.0000       3.969099       108.0047 
 577   0.0000       3.975905       108.1899 
 578   0.0000       3.977783       108.2410 
 579   0.0000       3.992639       108.6452 
 580   0.0000       3.998959       108.8172 
 581   0.0000       4.011082       109.1471 
 582   0.0000       4.020208       109.3954 
 583   0.0000       4.038602       109.8959 
 584   0.0000       4.044973       110.0693 
 585   0.0000       4.057513       110.4105 
 586   0.0000       4.066564       110.6568 
 587   0.0000       4.074538       110.8738 
 588   0.0000       4.082198       111.0823 
 589   0.0000       4.116580       112.0178 
 590   0.0000       4.118172       112.0611 
 591   0.0000       4.139133       112.6315 
 592   0.0000       4.148286       112.8806 
 593   0.0000       4.159752       113.1926 
 594   0.0000       4.166185       113.3677 
 595   0.0000       4.175147       113.6115 
 596   0.0000       4.181047       113.7721 
 597   0.0000       4.204064       114.3984 
 598   0.0000       4.206015       114.4515 
 599   0.0000       4.219348       114.8143 
 600   0.0000       4.232979       115.1852 
 601   0.0000       4.253378       115.7403 
 602   0.0000       4.270334       116.2017 
 603   0.0000       4.274627       116.3185 
 604   0.0000       4.281568       116.5074 
 605   0.0000       4.289555       116.7247 
 606   0.0000       4.311642       117.3257 
 607   0.0000       4.322942       117.6332 
 608   0.0000       4.325339       117.6984 
 609   0.0000       4.334671       117.9524 
 610   0.0000       4.346099       118.2634 
 611   0.0000       4.352384       118.4344 
 612   0.0000       4.362538       118.7107 
 613   0.0000       4.381076       119.2151 
 614   0.0000       4.388312       119.4120 
 615   0.0000       4.406769       119.9143 
 616   0.0000       4.419243       120.2537 
 617   0.0000       4.425269       120.4177 
 618   0.0000       4.437005       120.7370 
 619   0.0000       4.452296       121.1531 
 620   0.0000       4.467605       121.5697 
 621   0.0000       4.479708       121.8990 
 622   0.0000       4.480537       121.9216 
 623   0.0000       4.493320       122.2695 
 624   0.0000       4.500948       122.4770 
 625   0.0000       4.507349       122.6512 
 626   0.0000       4.521189       123.0278 
 627   0.0000       4.531344       123.3041 
 628   0.0000       4.534995       123.4035 
 629   0.0000       4.545233       123.6821 
 630   0.0000       4.566668       124.2654 
 631   0.0000       4.590223       124.9063 
 632   0.0000       4.606190       125.3408 
 633   0.0000       4.628456       125.9467 
 634   0.0000       4.636225       126.1581 
 635   0.0000       4.660372       126.8152 
 636   0.0000       4.666064       126.9701 
 637   0.0000       4.673588       127.1748 
 638   0.0000       4.696196       127.7900 
 639   0.0000       4.706086       128.0591 
 640   0.0000       4.727911       128.6530 
 641   0.0000       4.741339       129.0184 
 642   0.0000       4.753119       129.3389 
 643   0.0000       4.759110       129.5020 
 644   0.0000       4.773360       129.8897 
 645   0.0000       4.783956       130.1781 
 646   0.0000       4.817802       131.0991 
 647   0.0000       4.821752       131.2065 
 648   0.0000       4.833436       131.5245 
 649   0.0000       4.848526       131.9351 
 650   0.0000       4.867644       132.4553 
 651   0.0000       4.876939       132.7082 
 652   0.0000       4.878899       132.7616 
 653   0.0000       4.905104       133.4747 
 654   0.0000       4.918843       133.8485 
 655   0.0000       4.941422       134.4629 
 656   0.0000       4.944427       134.5447 
 657   0.0000       4.957025       134.8875 
 658   0.0000       4.982414       135.5784 
 659   0.0000       4.997937       136.0008 
 660   0.0000       5.000310       136.0654 
 661   0.0000       5.010697       136.3480 
 662   0.0000       5.024156       136.7142 
 663   0.0000       5.034132       136.9857 
 664   0.0000       5.036661       137.0545 
 665   0.0000       5.064962       137.8246 
 666   0.0000       5.070465       137.9744 
 667   0.0000       5.090183       138.5109 
 668   0.0000       5.109371       139.0331 
 669   0.0000       5.115432       139.1980 
 670   0.0000       5.125344       139.4677 
 671   0.0000       5.139034       139.8402 
 672   0.0000       5.157403       140.3401 
 673   0.0000       5.177565       140.8887 
 674   0.0000       5.197534       141.4321 
 675   0.0000       5.202939       141.5792 
 676   0.0000       5.212696       141.8447 
 677   0.0000       5.239418       142.5718 
 678   0.0000       5.250458       142.8722 
 679   0.0000       5.267761       143.3431 
 680   0.0000       5.274495       143.5263 
 681   0.0000       5.302503       144.2885 
 682   0.0000       5.308703       144.4572 
 683   0.0000       5.324288       144.8813 
 684   0.0000       5.353186       145.6676 
 685   0.0000       5.355692       145.7358 
 686   0.0000       5.364218       145.9678 
 687   0.0000       5.396553       146.8477 
 688   0.0000       5.412496       147.2815 
 689   0.0000       5.421553       147.5280 
 690   0.0000       5.440805       148.0518 
 691   0.0000       5.448933       148.2730 
 692   0.0000       5.464861       148.7064 
 693   0.0000       5.497135       149.5847 
 694   0.0000       5.557335       151.2228 
 695   0.0000       5.570299       151.5755 
 696   0.0000       5.585870       151.9992 
 697   0.0000       5.597256       152.3091 
 698   0.0000       5.614701       152.7838 
 699   0.0000       5.625803       153.0859 
 700   0.0000       5.630015       153.2005 
 701   0.0000       5.656777       153.9287 
 702   0.0000       5.687716       154.7706 
 703   0.0000       5.736682       156.1031 
 704   0.0000       5.753364       156.5570 
 705   0.0000       5.761703       156.7839 
 706   0.0000       5.797634       157.7616 
 707   0.0000       5.865259       159.6018 
 708   0.0000       5.876478       159.9071 
 709   0.0000       5.903500       160.6424 
 710   0.0000       5.956130       162.0745 
 711   0.0000       5.999815       163.2633 
 712   0.0000       6.015987       163.7033 
 713   0.0000       6.043435       164.4502 
 714   0.0000       6.048469       164.5872 
 715   0.0000       6.060310       164.9094 
 716   0.0000       6.065006       165.0372 
 717   0.0000       6.109733       166.2543 
 718   0.0000       6.120742       166.5539 
 719   0.0000       6.175391       168.0409 
 720   0.0000       6.181958       168.2196 
 721   0.0000       6.217889       169.1974 
 722   0.0000       6.308782       171.6707 
 723   0.0000       6.320118       171.9791 
 724   0.0000       6.333363       172.3396 
 725   0.0000       6.409553       174.4128 
 726   0.0000       6.475060       176.1954 
 727   0.0000       6.490550       176.6168 
 728   0.0000       6.533331       177.7810 
 729   0.0000       6.546570       178.1412 
 730   0.0000       6.616246       180.0372 
 731   0.0000       6.648759       180.9219 
 732   0.0000       6.717998       182.8060 
 733   0.0000       6.721883       182.9117 
 734   0.0000       6.728548       183.0931 
 735   0.0000       6.766966       184.1385 
 736   0.0000       6.798937       185.0085 
 737   0.0000       6.805287       185.1813 
 738   0.0000       6.862417       186.7359 
 739   0.0000       6.873441       187.0358 
 740   0.0000       6.902156       187.8172 
 741   0.0000       6.924123       188.4150 
 742   0.0000       6.932903       188.6539 
 743   0.0000       6.938846       188.8156 
 744   0.0000       6.953906       189.2254 
 745   0.0000       6.979525       189.9225 
 746   0.0000       6.984323       190.0531 
 747   0.0000       7.003224       190.5674 
 748   0.0000       7.022487       191.0916 
 749   0.0000       7.032988       191.3773 
 750   0.0000       7.045671       191.7225 
 751   0.0000       7.065435       192.2603 
 752   0.0000       7.113299       193.5627 
 753   0.0000       7.119729       193.7377 
 754   0.0000       7.132567       194.0870 
 755   0.0000       7.155375       194.7076 
 756   0.0000       7.257245       197.4797 
 757   0.0000       7.279767       198.0925 
 758   0.0000       7.333925       199.5662 
 759   0.0000       7.339811       199.7264 
 760   0.0000       7.347128       199.9255 
 761   0.0000       7.351901       200.0554 
 762   0.0000       7.526615       204.8096 
 763   0.0000       7.551254       205.4801 
 764   0.0000       7.594428       206.6549 
 765   0.0000       7.621216       207.3838 
 766   0.0000       7.634383       207.7421 
 767   0.0000       7.657112       208.3606 
 768   0.0000       7.711111       209.8300 
 769   0.0000       7.753223       210.9759 
 770   0.0000       7.779979       211.7040 
 771   0.0000       7.801476       212.2889 
 772   0.0000       7.914160       215.3552 
 773   0.0000      12.739363       346.6557 
 774   0.0000      12.911729       351.3460 
 775   0.0000      13.866681       377.3316 
 776   0.0000      14.440827       392.9549 
 777   0.0000      15.286570       415.9687 
 778   0.0000      16.131550       438.9618 
 779   0.0000      16.527330       449.7315 
 780   0.0000      17.826117       485.0733 
 781   0.0000      18.744190       510.0554 
 782   0.0000      18.830517       512.4044 
 783   0.0000      19.804526       538.9085 
 784   0.0000      20.278970       551.8188 
 785   0.0000      20.560197       559.4714 

                    ********************************
                    * MULLIKEN POPULATION ANALYSIS *
                    ********************************

-----------------------
MULLIKEN ATOMIC CHARGES
-----------------------
   0 C :    0.876733
   1 C :   -0.671579
   2 H :    0.455810
   3 C :   -1.023244
   4 H :    0.235540
   5 C :    1.539545
   6 C :    0.640840
   7 C :   -0.541253
   8 H :    0.076068
   9 C :   -1.022291
  10 H :    0.423785
  11 S :    1.886126
  12 O :   -1.012164
  13 O :   -1.008317
  14 N :   -1.069012
  15 H :    0.117229
  16 O :   -0.971626
  17 C :   -0.862952
  18 H :    0.320259
  19 H :    0.304563
  20 H :    0.305939
Sum of atomic charges:   -1.0000000

--------------------------------
MULLIKEN REDUCED ORBITAL CHARGES
--------------------------------
  0 C s       :     2.934358  s :     2.934358
      pz      :     0.581968  p :     2.372409
      px      :     0.880357
      py      :     0.910083
      dz2     :    -0.140578  d :    -0.139175
      dxz     :    -0.008958
      dyz     :     0.013389
      dx2y2   :    -0.010757
      dxy     :     0.007730
      f0      :     0.000940  f :    -0.044325
      f+1     :    -0.033786
      f-1     :    -0.002532
      f+2     :    -0.004945
      f-2     :    -0.003338
      f+3     :    -0.001236
      f-3     :     0.000571
  1 C s       :     3.758207  s :     3.758207
      pz      :     0.723365  p :     2.749451
      px      :     1.052378
      py      :     0.973708
      dz2     :    -0.007187  d :     0.181387
      dxz     :     0.136618
      dyz     :     0.031761
      dx2y2   :     0.002683
      dxy     :     0.017512
      f0      :    -0.000468  f :    -0.017467
      f+1     :    -0.021396
[...]
      px      :     0.847138
      py      :     0.642522
      dz2     :     0.252981  d :     0.895293
      dxz     :     0.253343
      dyz     :     0.102898
      dx2y2   :     0.148141
      dxy     :     0.137929
      f0      :     0.064138  f :     0.482430
      f+1     :     0.184616
      f-1     :     0.042161
      f+2     :     0.055791
      f-2     :     0.065649
      f+3     :     0.041095
      f-3     :     0.028979
  6 C s       :     2.490984  s :     2.490984
      pz      :     0.845282  p :     2.171195
      px      :     0.825314
      py      :     0.500599
      dz2     :     0.321044  d :     1.235567
      dxz     :     0.367360
      dyz     :     0.168476
      dx2y2   :     0.189382
      dxy     :     0.189304
      f0      :     0.074221  f :     0.647133
      f+1     :     0.248932
      f-1     :     0.049856
      f+2     :     0.086970
      f-2     :     0.076023
      f+3     :     0.051014
      f-3     :     0.060117
  7 C s       :     2.473261  s :     2.473261
      pz      :     0.853493  p :     2.260665
      px      :     0.817900
      py      :     0.589271
      dz2     :     0.205241  d :     0.729726
      dxz     :     0.243490
      dyz     :     0.130266
      dx2y2   :     0.087577
      dxy     :     0.063152
      f0      :     0.059584  f :     0.346069
      f+1     :     0.129500
      f-1     :     0.040564
      f+2     :     0.034268
      f-2     :     0.035417
      f+3     :     0.024209
      f-3     :     0.022528
  8 H s       :     0.648708  s :     0.648708
      pz      :     0.109434  p :     0.319164
      px      :     0.123857
      py      :     0.085874
      dz2     :     0.053713  d :     0.229617
      dxz     :     0.059650
      dyz     :     0.019222
      dx2y2   :     0.048383
      dxy     :     0.048649
  9 C s       :     2.483637  s :     2.483637
      pz      :     0.852606  p :     2.290260
      px      :     0.839666
      py      :     0.597988
      dz2     :     0.188023  d :     0.715763
      dxz     :     0.265625
      dyz     :     0.104950
      dx2y2   :     0.089015
      dxy     :     0.068151
      f0      :     0.056307  f :     0.346095
      f+1     :     0.128847
      f-1     :     0.046224
      f+2     :     0.037178
      f-2     :     0.021457
      f+3     :     0.028411
      f-3     :     0.027672
 10 H s       :     0.656496  s :     0.656496
      pz      :     0.113938  p :     0.315723
      px      :     0.119669
      py      :     0.082116
      dz2     :     0.064242  d :     0.228998
      dxz     :     0.051115
      dyz     :     0.028252
      dx2y2   :     0.045323
      dxy     :     0.040067
 11 S s       :     4.500073  s :     4.500073
      pz      :     2.657546  p :     8.109101
      px      :     2.709986
      py      :     2.741569
      dz2     :     0.496338  d :     2.294506
      dxz     :     0.366505
      dyz     :     0.357110
      dx2y2   :     0.551091
      dxy     :     0.523462
      f0      :     0.135663  f :     1.234054
      f+1     :     0.159644
      f-1     :     0.122216
      f+2     :     0.135527
      f-2     :     0.136897
      f+3     :     0.331249
      f-3     :     0.212857
 12 O s       :     3.329689  s :     3.329689
      pz      :     1.488761  p :     4.396428
      px      :     1.434726
      py      :     1.472941
      dz2     :     0.036437  d :     0.223334
      dxz     :     0.041973
      dyz     :     0.021640
      dx2y2   :     0.059208
      dxy     :     0.064076
      f0      :     0.005695  f :     0.067445
      f+1     :     0.009999
      f-1     :     0.005517
      f+2     :     0.003922
      f-2     :     0.010386
      f+3     :     0.015279
      f-3     :     0.016648
 13 O s       :     3.327707  s :     3.327707
      pz      :     1.481305  p :     4.389757
      px      :     1.417602
      py      :     1.490850
      dz2     :     0.039294  d :     0.225735
      dxz     :     0.052534
      dyz     :     0.015348
      dx2y2   :     0.059539
      dxy     :     0.059020
      f0      :     0.005910  f :     0.069299
      f+1     :     0.013175
      f-1     :     0.003290
      f+2     :     0.008596
      f-2     :     0.008350
      f+3     :     0.014769
      f-3     :     0.015209
 14 N s       :     2.919057  s :     2.919057
      pz      :     1.160796  p :     3.368424
      px      :     1.129606
      py      :     1.078021
      dz2     :     0.048044  d :     0.320890
      dxz     :     0.008980
      dyz     :     0.067636
      dx2y2   :     0.113607
      dxy     :     0.082622
      f0      :     0.007796  f :     0.112508
      f+1     :     0.005122
      f-1     :     0.022581
      f+2     :     0.018431
      f-2     :     0.005333
      f+3     :     0.029223
      f-3     :     0.024022
 15 H s       :     0.675512  s :     0.675512
      pz      :     0.173595  p :     0.565871
      px      :     0.245737
      py      :     0.146540
      dz2     :     0.032553  d :     0.352793
      dxz     :     0.103028
      dyz     :     0.011220
      dx2y2   :     0.101420
      dxy     :     0.104572
 16 O s       :     3.185455  s :     3.185455
      pz      :     1.459875  p :     4.052914
      px      :     1.430105
      py      :     1.162934
      dz2     :     0.064294  d :     0.223573
      dxz     :     0.068770
      dyz     :     0.016050
      dx2y2   :     0.050132
      dxy     :     0.024326
      f0      :     0.007295  f :     0.074749
      f+1     :     0.027613
      f-1     :     0.001587
      f+2     :     0.013678
      f-2     :     0.009090
      f+3     :     0.009069
      f-3     :     0.006417
 17 C s       :     2.455022  s :     2.455022
      pz      :     0.770311  p :     2.297140
      px      :     0.756687
      py      :     0.770142
      dz2     :     0.158437  d :     0.506622
      dxz     :     0.097445
      dyz     :     0.034900
      dx2y2   :     0.092030
      dxy     :     0.123809
      f0      :     0.023869  f :     0.183939
      f+1     :     0.043924
      f-1     :     0.007882
      f+2     :     0.026458
      f-2     :     0.018254
      f+3     :     0.035479
      f-3     :     0.028074
 18 H s       :     0.624142  s :     0.624142
      pz      :     0.096416  p :     0.320026
      px      :     0.104428
      py      :     0.119182
      dz2     :     0.041436  d :     0.230149
      dxz     :     0.035440
      dyz     :     0.032797
      dx2y2   :     0.082090
      dxy     :     0.038387
 19 H s       :     0.624090  s :     0.624090
      pz      :     0.096678  p :     0.319970
      px      :     0.088744
      py      :     0.134548
      dz2     :     0.042108  d :     0.230076
      dxz     :     0.016155
      dyz     :     0.051729
      dx2y2   :     0.059997
      dxy     :     0.060088
 20 H s       :     0.639012  s :     0.639012
      pz      :     0.142455  p :     0.315114
      px      :     0.086622
      py      :     0.086037
      dz2     :     0.058421  d :     0.234671
      dxz     :     0.081587
      dyz     :     0.076182
      dx2y2   :     0.007547
      dxy     :     0.010934


                      *****************************
                      * MAYER POPULATION ANALYSIS *
                      *****************************

  NA   - Mulliken gross atomic population
  ZA   - Total nuclear charge
  QA   - Mulliken gross atomic charge
  VA   - Mayer's total valence
  BVA  - Mayer's bonded valence
  FA   - Mayer's free valence

  ATOM       NA         ZA         QA         VA         BVA        FA
  0 C      5.1233     6.0000     0.8767     3.4021     3.4021     0.0000
  1 C      6.6716     6.0000    -0.6716     2.7278     2.7278    -0.0000
  2 H      0.5442     1.0000     0.4558     0.7513     0.7513    -0.0000
  3 C      7.0232     6.0000    -1.0232     2.7681     2.7681     0.0000
  4 H      0.7645     1.0000     0.2355     1.1672     1.1672    -0.0000
  5 C      4.4605     6.0000     1.5395     1.2274     1.2274    -0.0000
  6 C      5.3592     6.0000     0.6408     2.7048     2.7048    -0.0000
  7 C      6.5413     6.0000    -0.5413     2.6603     2.6603    -0.0000
  8 H      0.9239     1.0000     0.0761     1.1946     1.1946    -0.0000
  9 C      7.0223     6.0000    -1.0223     2.9841     2.9841     0.0000
 10 H      0.5762     1.0000     0.4238     0.8276     0.8276     0.0000
 11 S     14.1139    16.0000     1.8861     4.5748     4.5748     0.0000
 12 O      9.0122     8.0000    -1.0122     1.3197     1.3197    -0.0000
 13 O      9.0083     8.0000    -1.0083     1.3446     1.3446     0.0000
 14 N      8.0690     7.0000    -1.0690     2.4905     2.4905     0.0000
 15 H      0.8828     1.0000     0.1172     1.0847     1.0847    -0.0000
 16 O      8.9716     8.0000    -0.9716     1.0897     1.0897    -0.0000
 17 C      6.8630     6.0000    -0.8630     3.7542     3.7542    -0.0000
 18 H      0.6797     1.0000     0.3203     0.9318     0.9318    -0.0000
 19 H      0.6954     1.0000     0.3046     0.9573     0.9573    -0.0000
 20 H      0.6941     1.0000     0.3059     0.9505     0.9505     0.0000

  Mayer bond orders larger than 0.100000
B(  0-C ,  1-C ) :   0.9967 B(  0-C ,  9-C ) :   1.0157 B(  0-C , 11-S ) :   0.8923 
B(  0-C , 12-O ) :   0.1780 B(  0-C , 14-N ) :   0.2000 B(  1-C ,  2-H ) :   0.6765 
B(  1-C ,  3-C ) :   1.3853 B(  1-C , 16-O ) :  -0.1095 B(  3-C ,  4-H ) :   1.1311 
B(  3-C ,  5-C ) :   0.3710 B(  3-C ,  6-C ) :   0.2397 B(  3-C ,  7-C ) :  -0.3358 
B(  3-C ,  9-C ) :   0.1374 B(  4-H ,  5-C ) :  -0.1128 B(  4-H , 16-O ) :   0.1262 
B(  5-C ,  6-C ) :   0.4059 B(  5-C ,  7-C ) :   0.4151 B(  5-C ,  8-H ) :  -0.2121 
B(  5-C , 16-O ) :   0.2044 B(  6-C ,  7-C ) :   0.1931 B(  6-C , 16-O ) :   0.9281 
B(  6-C , 17-C ) :   0.9126 B(  7-C ,  8-H ) :   1.4942 B(  7-C ,  9-C ) :   1.2092 
B(  8-H ,  9-C ) :  -0.1174 B(  9-C , 10-H ) :   0.7384 B(  9-C , 14-N ) :  -0.1062 
B( 11-S , 12-O ) :   1.1510 B( 11-S , 13-O ) :   1.2134 B( 11-S , 14-N ) :   1.3548 
B( 14-N , 15-H ) :   0.9276 B( 17-C , 18-H ) :   0.9472 B( 17-C , 19-H ) :   0.9675 
B( 17-C , 20-H ) :   0.9116 

-------
TIMINGS
-------

Total SCF time: 0 days 0 hours 2 min 39 sec 

Total time                  ....     159.236 sec
Sum of individual times     ....     157.425 sec  ( 98.9%)

Fock matrix formation       ....     151.517 sec  ( 95.2%)
  Split-RI-J                ....       9.358 sec  (  6.2% of F)
  Chain of spheres X        ....     121.847 sec  ( 80.4% of F)
  XC integration            ....      19.566 sec  ( 12.9% of F)
    Basis function eval.    ....       3.362 sec  ( 17.2% of XC)
    Density eval.           ....       7.368 sec  ( 37.7% of XC)
    XC-Functional eval.     ....       0.196 sec  (  1.0% of XC)
    XC-Potential eval.      ....       7.310 sec  ( 37.4% of XC)
Diagonalization             ....       1.130 sec  (  0.7%)
Density matrix formation    ....       0.098 sec  (  0.1%)
Population analysis         ....       0.124 sec  (  0.1%)
Initial guess               ....       1.018 sec  (  0.6%)
Orbital Transformation      ....       0.000 sec  (  0.0%)
Orbital Orthonormalization  ....       0.000 sec  (  0.0%)
DIIS solution               ....       0.546 sec  (  0.3%)
SOSCF solution              ....       0.837 sec  (  0.5%)
Grid generation             ....       2.155 sec  (  1.4%)

Maximum memory used throughout the entire SCF-calculation: 171.9 MB


           ************************************************************
           *        Program running with 8 parallel MPI-processes     *
           *              working on a common directory               *
           ************************************************************

------------------------------------------------------------------------------
                                ORCA  MP2 
------------------------------------------------------------------------------

Freezing NCore=34 chemical core electrons

   <<< Use J-auxbasis for calculation of Separable RI-J derivative contributions (Dim=727) >>> 


-------------
RI-MP2 ENERGY
-------------
Dimension of the basis                    ...  786
Memory devoted to MP2                     ... 3000 MB   
Data format for buffers                   ... DOUBLE
Compression type for matrix containers    ... UNCOMPRESSED
Scaling for aa/bb pairs                   ...   2.500e-01
Scaling for ab pairs                      ...   5.300e-01
Overall scaling of the MP2 energy         ...   1.000e+00
Calculating two index integrals           ... done (    0.033 sec)
Cholesky decomposition of V**-1           ... done (    0.261 sec)

-----------------
RI-TRANSFORMATION (AUX index driven)
-----------------

Dimension of the orbital-basis         ... 786
Dimension of the aux-basis             ... 1787
Transformation of internal/external MOs...   17-  51 to   52- 785
Number Format for Storage              ... Double (8 Byte)
Integral mode                          ... Direct

First Phase: integral generation and transformation of MO indices
  Aux angular momentum 0               ... done (    0.349 sec)
  Aux angular momentum 1               ... done (    0.619 sec)
  Aux angular momentum 2               ... done (    0.855 sec)
  Aux angular momentum 3               ... done (    0.846 sec)
  Aux angular momentum 4               ... done (    0.479 sec)
Closing buffer VIA ( 0.34 GB; CompressionRatio= 1.00)
  Phase 1 completed in     3.423 sec
Second Phase: sorting and transformation of aux index

IA-Transformation
Memory available                       ... 2918 MB 
Max. # MO pairs treated in a batch     ... 5    
# of internal orbitals                 ... 35
# batches for internal orbitals        ... 1
Closing buffer IAV ( 0.34 GB; CompressionRatio= 1.00)
(ia|v) transformation done in     0.541 sec

  Phase 2 completed in     0.651 sec
RI-Integral transformation completed in     4.077 sec
Opening buffers                              ... done

Starting loop over batches of integrals:

Operator 0  - window                       ... ( 17- 51)x( 52-785)
Operator 0  - Memory available             ...  3000 MB
Operator 0  - Memory needed per MO         ...  10.0 MB
Operator 0  - Number of orbitals per batch ... 5
Operator 0  - Number of batches            ... 1

OPERATOR  0   PASS   0:  MOs    17 ...   21 +   22 ...   26 +   27 ...   31 +   32 ...   36
                            +   37 ...   41 +   42 ...   46 +   47 ...   51
  Reading integrals       ... ok
  Internal MO  19
Time spent in pair loops =     0.644 sec
Deleting buffer (Ka|jb)[aa] ...done

-----------------------------------------------
 RI-MP2 CORRELATION ENERGY:     -1.253744972 Eh
-----------------------------------------------


-------
TIMINGS
-------

Total time                :   10.841 sec
Integral trafo            :    4.090 sec ( 37.7%)
I/O of integrals          :    0.027 sec (  0.2%)
K(i,j) Operators          :    0.493 sec (  4.5%)
T(i,j) pair energies      :    0.077 sec (  0.7%)
V-calculation             :    0.033 sec (  0.3%)
V**(-1/2)                 :    0.261 sec (  2.4%)
Gamma(ia|P)               :    0.000 sec (  0.0%)
Gamma-Trafo               :    0.000 sec (  0.0%)
D(virtual)                :    0.000 sec (  0.0%)
D(internal)               :    0.000 sec (  0.0%)
W(virtual)                :    0.000 sec (  0.0%)
W(internal)               :    0.000 sec (  0.0%)
L(virtual)                :    0.000 sec (  0.0%)
L(internal)               :    0.000 sec (  0.0%)
G(D)                      :    0.000 sec (  0.0%)
G(Z)                      :    0.000 sec (  0.0%)
Z-Vector Solution         :    0.000 sec (  0.0%)
3-Index Derivative        :    0.000 sec (  0.0%)
2-Index Derivative        :    0.000 sec (  0.0%)
Separable Gradient (RIJ)  :    0.000 sec (  0.0%)
Separable Gradient (COSX) :    0.000 sec (  0.0%)


---------------------------------------
MP2 TOTAL ENERGY:     -987.240286107 Eh
---------------------------------------

Maximum memory used throughout the entire MP2-calculation: 194.6 MB


-------------------------------------------------------------------------------
                          DFT DISPERSION CORRECTION                            
                                                                               
                              DFTD3 V3.1  Rev 1                                
                          USING Becke-Johnson damping                          
-------------------------------------------------------------------------------
The DSD-PBEP86 functional is recognized
Active option DFTDOPT                   ...         4   

molecular C6(AA) [au] = 6323.678364 


            DFT-D V3
 parameters
 s6 scaling factor         :     0.4180 
 a1 scaling factor         :     0.0000 
 s8 scaling factor         :     0.0000 
 a2 scaling factor         :     5.6500 
 ad hoc parameters k1-k3   :    16.0000     1.3333    -4.0000 

 Edisp/kcal,au: -9.872605175756  -0.015732996123 
 E6   /kcal   :  -9.872605176 
 E8   /kcal   :  -0.000000000 
 % E8         :   0.000000000 

-------------------------   ----------------
Dispersion correction           -0.015732996
-------------------------   ----------------


-------------------------   --------------------
FINAL SINGLE POINT ENERGY      -987.256019103449
-------------------------   --------------------


                            ***************************************
                            *     ORCA property calculations      *
                            ***************************************


  WARNING: The energy has been calculated at the MP2 level but the densities
           used in the property calculations are still SCF densities
           MP2 response densities have not been calculated 
           use %mp2 Density relaxed end
           or  %mp2 Density unrelaxed end

                                    ---------------------
                                    Active property flags
                                    ---------------------
   (+) Dipole Moment


------------------------------------------------------------------------------
                       ORCA ELECTRIC PROPERTIES CALCULATION
------------------------------------------------------------------------------

Dipole Moment Calculation                       ... on
Quadrupole Moment Calculation                   ... off
Polarizability Calculation                      ... off
GBWName                                         ... A.12.avtz.gbw
Electron density                                ... A.12.avtz.scfp
The origin for moment calculation is the CENTER OF MASS  = (-2.523143,  1.086132 -3.349346)

-------------
DIPOLE MOMENT
-------------
                                X             Y             Z
Electronic contribution:     -3.36027      -2.05967       7.99138
Nuclear contribution   :      4.13834       2.20889     -11.88287
                        -----------------------------------------
Total Dipole Moment    :      0.77808       0.14922      -3.89149
                        -----------------------------------------
Magnitude (a.u.)       :      3.97132
Magnitude (Debye)      :     10.09430



--------------------
Rotational spectrum 
--------------------
 
Rotational constants in cm-1:     0.070308     0.011334     0.010393 
Rotational constants in MHz :  2107.790767   339.776769   311.575264 

 Dipole components along the rotational axes: 
x,y,z [a.u.] :    -3.939002    -0.498555    -0.084252 
x,y,z [Debye]:   -10.012148    -1.267226    -0.214151 

 

Timings for individual modules:

Sum of individual times         ...      175.355 sec (=   2.923 min)
GTO integral calculation        ...        2.750 sec (=   0.046 min)   1.6 %
SCF iterations                  ...      160.469 sec (=   2.674 min)  91.5 %
MP2 module                      ...       12.135 sec (=   0.202 min)   6.9 %
                             ****ORCA TERMINATED NORMALLY****
TOTAL RUN TIME: 0 days 0 hours 2 minutes 57 seconds 580 msec
