
                                 *****************
                                 * O   R   C   A *
                                 *****************

                                            #,                                       
                                            ###                                      
                                            ####                                     
                                            #####                                    
                                            ######                                   
                                           ########,                                 
                                     ,,################,,,,,                         
                               ,,#################################,,                 
                          ,,##########################################,,             
                       ,#########################################, ''#####,          
                    ,#############################################,,   '####,        
                  ,##################################################,,,,####,       
                ,###########''''           ''''###############################       
              ,#####''   ,,,,##########,,,,          '''####'''          '####       
            ,##' ,,,,###########################,,,                        '##       
           ' ,,###''''                  '''############,,,                           
         ,,##''                                '''############,,,,        ,,,,,,###''
      ,#''                                            '''#######################'''  
     '                                                          ''''####''''         
             ,#######,   #######,   ,#######,      ##                                
            ,#'     '#,  ##    ##  ,#'     '#,    #''#        ######   ,####,        
            ##       ##  ##   ,#'  ##            #'  '#       #        #'  '#        
            ##       ##  #######   ##           ,######,      #####,   #    #        
            '#,     ,#'  ##    ##  '#,     ,#' ,#      #,         ##   #,  ,#        
             '#######'   ##     ##  '#######'  #'      '#     #####' # '####'        



                  #######################################################
                  #                        -***-                        #
                  #          Department of theory and spectroscopy      #
                  #    Directorship and core code : Frank Neese         #
                  #        Max Planck Institute fuer Kohlenforschung    #
                  #                Kaiser Wilhelm Platz 1               #
                  #                 D-45470 Muelheim/Ruhr               #
                  #                      Germany                        #
                  #                                                     #
                  #                  All rights reserved                #
                  #                        -***-                        #
                  #######################################################


                         Program Version 5.0.3 -  RELEASE  -


 With contributions from (in alphabetic order):
   Daniel Aravena         : Magnetic Suceptibility
   Michael Atanasov       : Ab Initio Ligand Field Theory (pilot matlab implementation)
   Alexander A. Auer      : GIAO ZORA, VPT2 properties, NMR spectrum
   Ute Becker             : Parallelization
   Giovanni Bistoni       : ED, misc. LED, open-shell LED, HFLD
   Martin Brehm           : Molecular dynamics
   Dmytro Bykov           : SCF Hessian
   Vijay G. Chilkuri      : MRCI spin determinant printing, contributions to CSF-ICE
   Dipayan Datta          : RHF DLPNO-CCSD density
   Achintya Kumar Dutta   : EOM-CC, STEOM-CC
   Dmitry Ganyushin       : Spin-Orbit,Spin-Spin,Magnetic field MRCI
   Miquel Garcia          : C-PCM and meta-GGA Hessian, CC/C-PCM, Gaussian charge scheme
   Yang Guo               : DLPNO-NEVPT2, F12-NEVPT2, CIM, IAO-localization
   Andreas Hansen         : Spin unrestricted coupled pair/coupled cluster methods
   Benjamin Helmich-Paris : MC-RPA, TRAH-SCF, COSX integrals
   Lee Huntington         : MR-EOM, pCC
   Robert Izsak           : Overlap fitted RIJCOSX, COSX-SCS-MP3, EOM
   Marcus Kettner         : VPT2
   Christian Kollmar      : KDIIS, OOCD, Brueckner-CCSD(T), CCSD density, CASPT2, CASPT2-K
   Simone Kossmann        : Meta GGA functionals, TD-DFT gradient, OOMP2, MP2 Hessian
   Martin Krupicka        : Initial AUTO-CI
   Lucas Lang             : DCDCAS
   Marvin Lechner         : AUTO-CI (C++ implementation), FIC-MRCC
   Dagmar Lenk            : GEPOL surface, SMD
   Dimitrios Liakos       : Extrapolation schemes; Compound Job, initial MDCI parallelization
   Dimitrios Manganas     : Further ROCIS development; embedding schemes
   Dimitrios Pantazis     : SARC Basis sets
   Anastasios Papadopoulos: AUTO-CI, single reference methods and gradients
   Taras Petrenko         : DFT Hessian,TD-DFT gradient, ASA, ECA, R-Raman, ABS, FL, XAS/XES, NRVS
   Peter Pinski           : DLPNO-MP2, DLPNO-MP2 Gradient
   Christoph Reimann      : Effective Core Potentials
   Marius Retegan         : Local ZFS, SOC
   Christoph Riplinger    : Optimizer, TS searches, QM/MM, DLPNO-CCSD(T), (RO)-DLPNO pert. Triples
   Tobias Risthaus        : Range-separated hybrids, TD-DFT gradient, RPA, STAB
   Michael Roemelt        : Original ROCIS implementation
   Masaaki Saitow         : Open-shell DLPNO-CCSD energy and density
   Barbara Sandhoefer     : DKH picture change effects
   Avijit Sen             : IP-ROCIS
   Kantharuban Sivalingam : CASSCF convergence, NEVPT2, FIC-MRCI
   Bernardo de Souza      : ESD, SOC TD-DFT
   Georgi Stoychev        : AutoAux, RI-MP2 NMR, DLPNO-MP2 response
   Willem Van den Heuvel  : Paramagnetic NMR
   Boris Wezisla          : Elementary symmetry handling
   Frank Wennmohs         : Technical directorship


 We gratefully acknowledge several colleagues who have allowed us to
 interface, adapt or use parts of their codes:
   Stefan Grimme, W. Hujo, H. Kruse, P. Pracht,  : VdW corrections, initial TS optimization,
                  C. Bannwarth, S. Ehlert          DFT functionals, gCP, sTDA/sTD-DF
   Ed Valeev, F. Pavosevic, A. Kumar             : LibInt (2-el integral package), F12 methods
   Garnet Chan, S. Sharma, J. Yang, R. Olivares  : DMRG
   Ulf Ekstrom                                   : XCFun DFT Library
   Mihaly Kallay                                 : mrcc  (arbitrary order and MRCC methods)
   Jiri Pittner, Ondrej Demel                    : Mk-CCSD
   Frank Weinhold                                : gennbo (NPA and NBO analysis)
   Christopher J. Cramer and Donald G. Truhlar   : smd solvation model
   Lars Goerigk                                  : TD-DFT with DH, B97 family of functionals
   V. Asgeirsson, H. Jonsson                     : NEB implementation
   FAccTs GmbH                                   : IRC, NEB, NEB-TS, DLPNO-Multilevel, CI-OPT
                                                   MM, QMMM, 2- and 3-layer-ONIOM, Crystal-QMMM,
                                                   LR-CPCM, SF, NACMEs, symmetry and pop. for TD-DFT,
                                                   nearIR, NL-DFT gradient (VV10), updates on ESD,
                                                   ML-optimized integration grids
   S Lehtola, MJT Oliveira, MAL Marques          : LibXC Library
   Liviu Ungur et al                             : ANISO software


 Your calculation uses the libint2 library for the computation of 2-el integrals
 For citations please refer to: http://libint.valeyev.net

 Your ORCA version has been built with support for libXC version: 5.1.0
 For citations please refer to: https://tddft.org/programs/libxc/

 This ORCA versions uses:
   CBLAS   interface :  Fast vector & matrix operations
   LAPACKE interface :  Fast linear algebra routines
   SCALAPACK package :  Parallel linear algebra routines
   Shared memory     :  Shared parallel matrices
   BLAS/LAPACK       :  OpenBLAS 0.3.15  USE64BITINT DYNAMIC_ARCH NO_AFFINITY SkylakeX SINGLE_THREADED
        Core in use  :  SkylakeX
   Copyright (c) 2011-2014, The OpenBLAS Project


Your calculation utilizes the atom-pairwise dispersion correction
with the Becke-Johnson damping scheme (D3BJ)
Cite in your paper:
S.Grimme, S.Ehrlich, L.Goerigk, J Comput Chem, (2011), 32, 1456–1465 
S.Grimme, J.Antony, S.Ehrlich and H.Krieg, J.Chem.Phys., 132, (2010), 154104 
   

================================================================================

----- Orbital basis set information -----
Your calculation utilizes the basis: aug-cc-pVTZ 
    H, B-Ne : Obtained from the ccRepo (grant-hill.group.shef.ac.uk/ccrepo) Feb. 2017
              R. A. Kendall, T. H. Dunning, Jr., R. J. Harrison, J. Chem. Phys. 96, 6796 (1992)
         He : Obtained from the ccRepo (grant-hill.group.shef.ac.uk/ccrepo) Feb. 2017
              D. E. Woon, T. H. Dunning, Jr., J. Chem. Phys. 100, 2975 (1994)
  Li-Be, Na : Obtained from the ccRepo (grant-hill.group.shef.ac.uk/ccrepo) Feb. 2017
              B. P. Prascher, D. E. Woon, K. A. Peterson, T. H. Dunning, Jr., A. K. Wilson, Theor. Chem. Acc. 128, 69 (2011)
         Mg : Obtained from the Peterson Research Group Website (tyr0.chem.wsu.edu/~kipeters) Feb. 2017
              B. P. Prascher, D. E. Woon, K. A. Peterson, T. H. Dunning, Jr., A. K. Wilson, Theor. Chem. Acc. 128, 69 (2011)
      Al-Ar : Obtained from the ccRepo (grant-hill.group.shef.ac.uk/ccrepo) Feb. 2017
              D. E. Woon, T. H. Dunning, Jr., J. Chem. Phys. 98, 1358 (1993)
      Sc-Zn : Obtained from the ccRepo (grant-hill.group.shef.ac.uk/ccrepo) Feb. 2017
              N. B. Balabanov, K. A. Peterson, J. Chem. Phys. 123, 064107 (2005)
              N. B. Balabanov, K. A. Peterson, J. Chem. Phys. 125, 074110 (2006)
      Ga-Kr : Obtained from the ccRepo (grant-hill.group.shef.ac.uk/ccrepo) Feb. 2017
              A. K. Wilson, D. E. Woon, K. A. Peterson, T. H. Dunning, Jr., J. Chem. Phys. 110, 7667 (1999)
     Ag, Au : Obtained from the Peterson Research Group Website (tyr0.chem.wsu.edu/~kipeters) Feb. 2017
              K. A. Peterson, C. Puzzarini, Theor. Chem. Acc. 114, 283 (2005)

----- AuxJ basis set information -----
Your calculation utilizes the auxiliary basis: def2/J
   F. Weigend, Phys. Chem. Chem. Phys. 8, 1057 (2006).

----- AuxC basis set information -----
Your calculation utilizes the auxiliary basis: aug-cc-pVTZ/C 
  H-He, B-F, Al-Ar, Ga-Kr : Obtained from the EMSL Basis Set Exchange (bse.pnl.gov) Feb. 2017
                            F. Weigend, A. Kohn, C. Hattig, J. Chem. Phys. 116, 3175 (2002)
                   Be, Mg : Obtained from the TURBOMOLE 7.0 basis set library
                            C. Haettig, Phys. Chem. Chem. Phys. 7, 59 (2005)
                       Ne : Obtained from the EMSL Basis Set Exchange (bse.pnl.gov) Feb. 2017
                            C. Haettig, Phys. Chem. Chem. Phys. 7, 59 (2005)
                            F. Weigend, A. Kohn, C. Hattig, J. Chem. Phys. 116, 3175 (2002)
                    Sc-Zn : Obtained from the EMSL Basis Set Exchange (bse.pnl.gov) Feb. 2017
                            J. G. Hill, J. A. Platts, J. Chem. Phys. 128, 044104 (2008)

================================================================================
                                        WARNINGS
                       Please study these warnings very carefully!
================================================================================


WARNING: No MP2 level density has been requested!
         To caclulate MP2 level properties use
         %mp2 Density relaxed end
         or
         %mp2 Density unrelaxed end
         Otherwise for double-hybrid DFT only the energy is correct!

WARNING: There are different parametrizations of Gershom Martin's DSD-DFs
         for use with and without D3(BJ)!
         You are using the D3(BJ) parametrized version,
         consistent with the GMTKN55 benchmark (L. Goerigk et al., PCCP 2017, 19, 32184)

WARNING: The frozen-core approximation is turned on by default for 
         the MP2 part of double-hybrid DFT.

INFO   : the flag for use of the SHARK integral package has been found!

================================================================================
                                       INPUT FILE
================================================================================
NAME = A.15.avtz.com
|  1> !PAL8
|  2> !RI-DSD-PBEP86 D3BJ aug-cc-pVTZ aug-cc-pVTZ/C TightSCF
|  3> %maxcore 5000
|  4> 
|  5> * xyz -1 1
|  6> C -1.3557006117  0.7546971654 -0.8316832431
|  7> C -2.5303683713  0.8271414576 -1.5798479823
|  8> H -3.4811300575  0.7036751284 -1.0686144662
|  9> C -2.4725656169  1.0751992194 -2.9483183399
| 10> H -3.376594128  1.1447175996 -3.5469352294
| 11> C -1.2385044618  1.2403285548 -3.5839150267
| 12> C -1.2325650292  1.4607392226 -5.0608785567
| 13> C -0.0629193093  1.1910260888 -2.8212709173
| 14> H  0.9025110138  1.3815175841 -3.2860804124
| 15> C -0.122315372  0.953080034 -1.4528484608
| 16> H  0.7757008108  0.9319472141 -0.8419939071
| 17> S -1.4063186625  0.3078867683  0.936097589
| 18> O -0.2439417108  1.0320823433  1.4821131659
| 19> O -2.7512154694  0.7822230226  1.347518257
| 20> N -1.1913059781 -1.2400279237  1.0220691343
| 21> H -2.1129247595 -1.6651985335  0.9015108356
| 22> N -0.0690366344  1.1410294972 -5.7121383898
| 23> O -2.1960639942  1.8969345486 -5.6814678884
| 24> C -0.0136350328  1.2163112315 -7.1563145756
| 25> H  1.0124448209  1.0321976105 -7.4817225304
| 26> H -0.3203010451  2.2137094499 -7.478800688
| 27> H -0.684209002  0.4889541 -7.6303092138
| 28> H  0.5911276012  0.5470176168 -5.2322681538
| 29> 
| 30> *
| 31> 
| 32>                          ****END OF INPUT****
================================================================================

                       ****************************
                       * Single Point Calculation *
                       ****************************

---------------------------------
CARTESIAN COORDINATES (ANGSTROEM)
---------------------------------
  C     -1.355701    0.754697   -0.831683
  C     -2.530368    0.827141   -1.579848
  H     -3.481130    0.703675   -1.068614
  C     -2.472566    1.075199   -2.948318
  H     -3.376594    1.144718   -3.546935
  C     -1.238504    1.240329   -3.583915
  C     -1.232565    1.460739   -5.060879
  C     -0.062919    1.191026   -2.821271
  H      0.902511    1.381518   -3.286080
  C     -0.122315    0.953080   -1.452848
  H      0.775701    0.931947   -0.841994
  S     -1.406319    0.307887    0.936098
  O     -0.243942    1.032082    1.482113
  O     -2.751215    0.782223    1.347518
  N     -1.191306   -1.240028    1.022069
  H     -2.112925   -1.665199    0.901511
  N     -0.069037    1.141029   -5.712138
  O     -2.196064    1.896935   -5.681468
  C     -0.013635    1.216311   -7.156315
  H      1.012445    1.032198   -7.481723
  H     -0.320301    2.213709   -7.478801
  H     -0.684209    0.488954   -7.630309
  H      0.591128    0.547018   -5.232268

----------------------------
CARTESIAN COORDINATES (A.U.)
----------------------------
  NO LB      ZA    FRAG     MASS         X           Y           Z
   0 C     6.0000    0    12.011   -2.561903    1.426171   -1.571654
   1 C     6.0000    0    12.011   -4.781703    1.563071   -2.985480
   2 H     1.0000    0     1.008   -6.578382    1.329753   -2.019389
   3 C     6.0000    0    12.011   -4.672472    2.031832   -5.571514
   4 H     1.0000    0     1.008   -6.380838    2.163203   -6.702736
   5 C     6.0000    0    12.011   -2.340434    2.343881   -6.772618
   6 C     6.0000    0    12.011   -2.329210    2.760397   -9.563674
   7 C     6.0000    0    12.011   -0.118900    2.250713   -5.331429
   8 H     1.0000    0     1.008    1.705499    2.610690   -6.209792
   9 C     6.0000    0    12.011   -0.231143    1.801060   -2.745486
  10 H     1.0000    0     1.008    1.465862    1.761125   -1.591138
  11 S    16.0000    0    32.060   -2.657557    0.581822    1.768968
  12 O     8.0000    0    15.999   -0.460983    1.950353    2.800788
  13 O     8.0000    0    15.999   -5.199044    1.478187    2.546440
  14 N     7.0000    0    14.007   -2.251242   -2.343313    1.931431
  15 H     1.0000    0     1.008   -3.992849   -3.146769    1.703609
  16 N     7.0000    0    14.007   -0.130460    2.156233  -10.794377
  17 O     8.0000    0    15.999   -4.149960    3.584687  -10.736418
  18 C     6.0000    0    12.011   -0.025766    2.298495  -13.523475
  19 H     1.0000    0     1.008    1.913243    1.950571  -14.138407
  20 H     1.0000    0     1.008   -0.605281    4.183305  -14.132885
  21 H     1.0000    0     1.008   -1.292968    0.923989  -14.419195
  22 H     1.0000    0     1.008    1.117069    1.033713   -9.887554

--------------------------------
INTERNAL COORDINATES (ANGSTROEM)
--------------------------------
 C      0   0   0     0.000000000000     0.00000000     0.00000000
 C      1   0   0     1.394576278982     0.00000000     0.00000000
 H      2   1   0     1.086531834037   118.60255017     0.00000000
 C      2   1   3     1.391971598574   120.11278272   178.94517340
 H      4   2   1     1.086481723023   121.23276691   180.58675170
 C      4   2   1     1.397911935784   120.31200605     0.62100169
 C      6   4   2     1.493330977476   118.07574707   178.07609101
 C      6   4   2     1.402161624612   119.25411658   358.20341784
 H      8   6   4     1.088297103404   120.35117245   183.99091470
 C      8   6   4     1.390225246754   120.36945520     1.31897955
 H     10   8   6     1.086288611016   121.43447925   181.29875003
 S      1   2   3     1.824075324202   120.61557108     5.63905375
 O     12   1   2     1.474351524878   102.51622173   210.09764544
 O     12   1   2     1.484253775273   102.44478836   331.83409416
 N     12   1   2     1.565139436205   106.95841665    93.34374821
 H     15  12   1     1.022098590671   106.32289323   274.33401318
 N      7   6   4     1.371186349199   116.02198640   202.78095922
 O      7   6   4     1.226265769155   123.36086590    22.60795896
 C     17   7   6     1.447197820829   119.62522906   174.79711645
 H     19  17   7     1.092075102112   108.93823230   173.97362205
 H     19  17   7     1.092174226879   109.35433282    54.62786202
 H     19  17   7     1.096990775693   111.91877756   295.20384717
 H     17   7   6     1.009426755847   117.79904374    17.27950035

---------------------------
INTERNAL COORDINATES (A.U.)
---------------------------
 C      0   0   0     0.000000000000     0.00000000     0.00000000
 C      1   0   0     2.635367240138     0.00000000     0.00000000
 H      2   1   0     2.053247602117   118.60255017     0.00000000
 C      2   1   3     2.630445107501   120.11278272   178.94517340
 H      4   2   1     2.053152906023   121.23276691   180.58675170
 C      4   2   1     2.641670717972   120.31200605     0.62100169
 C      6   4   2     2.821986574731   118.07574707   178.07609101
 C      6   4   2     2.649701466011   119.25411658   358.20341784
 H      8   6   4     2.056583477773   120.35117245   183.99091470
 C      8   6   4     2.627144980828   120.36945520     1.31897955
 H     10   8   6     2.052787977218   121.43447925   181.29875003
 S      1   2   3     3.447002810386   120.61557108     5.63905375
 O     12   1   2     2.786120607149   102.51622173   210.09764544
 O     12   1   2     2.804833148504   102.44478836   331.83409416
 N     12   1   2     2.957684895827   106.95841665    93.34374821
 H     15  12   1     1.931486418236   106.32289323   274.33401318
 N      7   6   4     2.591166678558   116.02198640   202.78095922
 O      7   6   4     2.317306471104   123.36086590    22.60795896
 C     17   7   6     2.734807542974   119.62522906   174.79711645
 H     19  17   7     2.063722860667   108.93823230   173.97362205
 H     19  17   7     2.063910179328   109.35433282    54.62786202
 H     19  17   7     2.073012137497   111.91877756   295.20384717
 H     17   7   6     1.907540120804   117.79904374    17.27950035

---------------------
BASIS SET INFORMATION
---------------------
There are 5 groups of distinct atoms

 Group   1 Type C   : 19s6p3d2f contracted to 5s4p3d2f pattern {88111/3111/111/11}
 Group   2 Type H   : 6s3p2d contracted to 4s3p2d pattern {3111/111/11}
 Group   3 Type S   : 42s17p3d2f contracted to 6s5p3d2f pattern {131313111/77111/111/11}
 Group   4 Type O   : 19s6p3d2f contracted to 5s4p3d2f pattern {88111/3111/111/11}
 Group   5 Type N   : 19s6p3d2f contracted to 5s4p3d2f pattern {88111/3111/111/11}

Atom   0C    basis set group =>   1
Atom   1C    basis set group =>   1
Atom   2H    basis set group =>   2
Atom   3C    basis set group =>   1
Atom   4H    basis set group =>   2
Atom   5C    basis set group =>   1
Atom   6C    basis set group =>   1
Atom   7C    basis set group =>   1
Atom   8H    basis set group =>   2
Atom   9C    basis set group =>   1
Atom  10H    basis set group =>   2
Atom  11S    basis set group =>   3
Atom  12O    basis set group =>   4
Atom  13O    basis set group =>   4
Atom  14N    basis set group =>   5
Atom  15H    basis set group =>   2
Atom  16N    basis set group =>   5
Atom  17O    basis set group =>   4
Atom  18C    basis set group =>   1
Atom  19H    basis set group =>   2
Atom  20H    basis set group =>   2
Atom  21H    basis set group =>   2
Atom  22H    basis set group =>   2
---------------------------------
AUXILIARY/J BASIS SET INFORMATION
---------------------------------
There are 5 groups of distinct atoms

 Group   1 Type C   : 12s5p4d2f1g contracted to 6s4p3d1f1g pattern {711111/2111/211/2/1}
 Group   2 Type H   : 5s2p1d contracted to 3s1p1d pattern {311/2/1}
 Group   3 Type S   : 14s5p5d2f1g contracted to 8s4p3d1f1g pattern {71111111/2111/311/2/1}
 Group   4 Type O   : 12s5p4d2f1g contracted to 6s4p3d1f1g pattern {711111/2111/211/2/1}
 Group   5 Type N   : 12s5p4d2f1g contracted to 6s4p3d1f1g pattern {711111/2111/211/2/1}

Atom   0C    basis set group =>   1
Atom   1C    basis set group =>   1
Atom   2H    basis set group =>   2
Atom   3C    basis set group =>   1
Atom   4H    basis set group =>   2
Atom   5C    basis set group =>   1
Atom   6C    basis set group =>   1
Atom   7C    basis set group =>   1
Atom   8H    basis set group =>   2
Atom   9C    basis set group =>   1
Atom  10H    basis set group =>   2
Atom  11S    basis set group =>   3
Atom  12O    basis set group =>   4
Atom  13O    basis set group =>   4
Atom  14N    basis set group =>   5
Atom  15H    basis set group =>   2
Atom  16N    basis set group =>   5
Atom  17O    basis set group =>   4
Atom  18C    basis set group =>   1
Atom  19H    basis set group =>   2
Atom  20H    basis set group =>   2
Atom  21H    basis set group =>   2
Atom  22H    basis set group =>   2
---------------------------------
AUXILIARY/C BASIS SET INFORMATION
---------------------------------
There are 5 groups of distinct atoms

 Group   1 Type C   : 9s7p6d4f2g contracted to 9s7p6d4f2g pattern {111111111/1111111/111111/1111/11}
 Group   2 Type H   : 5s4p3d2f contracted to 5s4p3d2f pattern {11111/1111/111/11}
 Group   3 Type S   : 11s9p8d6f3g contracted to 11s9p8d6f3g pattern {11111111111/111111111/11111111/111111/111}
 Group   4 Type O   : 9s7p6d4f2g contracted to 9s7p6d4f2g pattern {111111111/1111111/111111/1111/11}
 Group   5 Type N   : 9s7p6d4f2g contracted to 9s7p6d4f2g pattern {111111111/1111111/111111/1111/11}

Atom   0C    basis set group =>   1
Atom   1C    basis set group =>   1
Atom   2H    basis set group =>   2
Atom   3C    basis set group =>   1
Atom   4H    basis set group =>   2
Atom   5C    basis set group =>   1
Atom   6C    basis set group =>   1
Atom   7C    basis set group =>   1
Atom   8H    basis set group =>   2
Atom   9C    basis set group =>   1
Atom  10H    basis set group =>   2
Atom  11S    basis set group =>   3
Atom  12O    basis set group =>   4
Atom  13O    basis set group =>   4
Atom  14N    basis set group =>   5
Atom  15H    basis set group =>   2
Atom  16N    basis set group =>   5
Atom  17O    basis set group =>   4
Atom  18C    basis set group =>   1
Atom  19H    basis set group =>   2
Atom  20H    basis set group =>   2
Atom  21H    basis set group =>   2
Atom  22H    basis set group =>   2


           ************************************************************
           *        Program running with 8 parallel MPI-processes     *
           *              working on a common directory               *
           ************************************************************
------------------------------------------------------------------------------
                           ORCA GTO INTEGRAL CALCULATION
                           -- RI-GTO INTEGRALS CHOSEN --
------------------------------------------------------------------------------
------------------------------------------------------------------------------
                   ___                                                        
                  /   \      - P O W E R E D   B Y -                         
                 /     \                                                     
                 |  |  |   _    _      __       _____    __    __             
                 |  |  |  | |  | |    /  \     |  _  \  |  |  /  |          
                  \  \/   | |  | |   /    \    | | | |  |  | /  /          
                 / \  \   | |__| |  /  /\  \   | |_| |  |  |/  /          
                |  |  |   |  __  | /  /__\  \  |    /   |      \           
                |  |  |   | |  | | |   __   |  |    \   |  |\   \          
                \     /   | |  | | |  |  |  |  | |\  \  |  | \   \       
                 \___/    |_|  |_| |__|  |__|  |_| \__\ |__|  \__/        
                                                                              
                      - O R C A' S   B I G   F R I E N D -                    
                                      &                                       
                       - I N T E G R A L  F E E D E R -                       
                                                                              
 v1 FN, 2020, v2 2021                                                         
------------------------------------------------------------------------------


Reading SHARK input file A.15.avtz.SHARKINP.tmp ... ok
----------------------
SHARK INTEGRAL PACKAGE
----------------------

Number of atoms                             ...     23
Number of basis functions                   ...    958
Number of shells                            ...    372
Maximum angular momentum                    ...      3
Integral batch strategy                     ... SHARK/LIBINT Hybrid
RI-J (if used) integral strategy            ... SPLIT-RIJ (Revised 2003 algorithm where possible)
Printlevel                                  ...      1
Contraction scheme used                     ... PARTIAL GENERAL contraction
Coulomb Range Separation                    ... NOT USED
Exchange Range Separation                   ... NOT USED
Finite Nucleus Model                        ... NOT USED
Auxiliary Coulomb fitting basis             ... AVAILABLE
   # of basis functions in Aux-J            ...    787
   # of shells in Aux-J                     ...    257
   Maximum angular momentum in Aux-J        ...      4
Auxiliary J/K fitting basis                 ... NOT available
Auxiliary Correlation fitting basis         ... AVAILABLE
   # of basis functions in Aux-C            ...   1939
   # of shells in Aux-C                     ...    527
   Maximum angular momentum in Aux-C        ...      4
Auxiliary 'external' fitting basis          ... NOT available
Integral threshold                          ...     2.500000e-11
Primitive cut-off                           ...     2.500000e-12
Primitive pair pre-selection threshold      ...     2.500000e-12

Calculating pre-screening integrals         ... done (  0.1 sec) Dimension = 372
Calculating pre-screening integrals (ORCA)  ... done (  0.2 sec) Dimension = 279
Organizing shell pair data                  ... done (  0.6 sec)
Shell pair information
Total number of shell pairs                 ...     69378
Shell pairs after pre-screening             ...     49671
Total number of primitive shell pairs       ...     86802
Primitive shell pairs kept                  ...     57495
          la=0 lb=0:  11001 shell pairs
          la=1 lb=0:  12841 shell pairs
          la=1 lb=1:   3400 shell pairs
          la=2 lb=0:   8544 shell pairs
          la=2 lb=1:   4495 shell pairs
          la=2 lb=2:   1527 shell pairs
          la=3 lb=0:   4001 shell pairs
          la=3 lb=1:   2105 shell pairs
          la=3 lb=2:   1415 shell pairs
          la=3 lb=3:    342 shell pairs

Calculating one electron integrals          ... done (  0.1 sec)
Calculating RI/J V-Matrix + Cholesky decomp.... done (  0.1 sec)
Calculating RI/C V-Matrix + Cholesky decomp.... done (  0.3 sec)
Calculating Nuclear repulsion               ... done (  0.0 sec) ENN=    983.954694399467 Eh

SHARK setup successfully completed in   2.2 seconds

Maximum memory used throughout the entire GTOINT-calculation: 86.2 MB


           ************************************************************
           *        Program running with 8 parallel MPI-processes     *
           *              working on a common directory               *
           ************************************************************
-------------------------------------------------------------------------------
                                 ORCA SCF
-------------------------------------------------------------------------------

------------
SCF SETTINGS
------------
Hamiltonian:
 Density Functional     Method          .... DFT(GTOs)
 Exchange Functional    Exchange        .... PBE
   PBE kappa parameter   XKappa         ....  0.804000
   PBE mue parameter    XMuePBE         ....  0.219520
 Correlation Functional Correlation     .... P86
 LDA part of GGA corr.  LDAOpt          .... VWN-5
 Gradients option       PostSCFGGA      .... off
 Hybrid DFT is turned on
   Fraction HF Exchange ScalHFX         ....  0.700000
   Scaling of DF-GGA-X  ScalDFX         ....  0.300000
   Scaling of DF-GGA-C  ScalDFC         ....  0.430000
   Scaling of DF-LDA-C  ScalLDAC        ....  0.430000
   Perturbative correction              ....  1.000000
   Density functional embedding theory  .... OFF
   NL short-range parameter             .... 14.200000
 RI-approximation to the Coulomb term is turned on
   Number of AuxJ basis functions       .... 787
   RIJ-COSX (HFX calculated with COS-X)).... on


General Settings:
 Integral files         IntName         .... A.15.avtz
 Hartree-Fock type      HFTyp           .... RHF
 Total Charge           Charge          ....   -1
 Multiplicity           Mult            ....    1
 Number of Electrons    NEL             ....  112
 Basis Dimension        Dim             ....  855
 Nuclear Repulsion      ENuc            ....    983.9546943995 Eh

Convergence Acceleration:
 DIIS                   CNVDIIS         .... on
   Start iteration      DIISMaxIt       ....    12
   Startup error        DIISStart       ....  0.200000
   # of expansion vecs  DIISMaxEq       ....     5
   Bias factor          DIISBfac        ....   1.050
   Max. coefficient     DIISMaxC        ....  10.000
 Trust-Rad. Augm. Hess. CNVTRAH         .... auto
   Auto Start mean grad. ratio tolernc. ....  1.125000
   Auto Start start iteration           ....    20
   Auto Start num. interpolation iter.  ....    10
   Max. Number of Micro iterations      ....    16
   Max. Number of Macro iterations      .... Maxiter - #DIIS iter
   Number of Davidson start vectors     ....     2
   Converg. threshold I  (grad. norm)   ....   1.000e-05
   Converg. threshold II (energy diff.) ....   1.000e-08
   Grad. Scal. Fac. for Micro threshold ....   0.100
   Minimum threshold for Micro iter.    ....   0.010
   NR start threshold (gradient norm)   ....   0.001
   Initial trust radius                 ....   0.400
   Minimum AH scaling param. (alpha)    ....   1.000
   Maximum AH scaling param. (alpha)    .... 1000.000
   Orbital update algorithm             .... Taylor
   White noise on init. David. guess    .... on
   Maximum white noise                  ....   0.010
   Quad. conv. algorithm                .... NR
 SOSCF                  CNVSOSCF        .... on
   Start iteration      SOSCFMaxIt      ....   150
   Startup grad/error   SOSCFStart      ....  0.003300
 Level Shifting         CNVShift        .... on
   Level shift para.    LevelShift      ....    0.2500
   Turn off err/grad.   ShiftErr        ....    0.0010
 Zerner damping         CNVZerner       .... off
 Static damping         CNVDamp         .... on
   Fraction old density DampFac         ....    0.7000
   Max. Damping (<1)    DampMax         ....    0.9800
   Min. Damping (>=0)   DampMin         ....    0.0000
   Turn off err/grad.   DampErr         ....    0.1000
 Fernandez-Rico         CNVRico         .... off

SCF Procedure:
 Maximum # iterations   MaxIter         ....   125
 SCF integral mode      SCFMode         .... Direct
   Integral package                     .... SHARK and LIBINT hybrid scheme
 Reset frequency        DirectResetFreq ....    20
 Integral Threshold     Thresh          ....  2.500e-11 Eh
 Primitive CutOff       TCut            ....  2.500e-12 Eh

Convergence Tolerance:
 Convergence Check Mode ConvCheckMode   .... Total+1el-Energy
 Convergence forced     ConvForced      .... 0
 Energy Change          TolE            ....  1.000e-08 Eh
 1-El. energy change                    ....  1.000e-05 Eh
 Orbital Gradient       TolG            ....  1.000e-05
 Orbital Rotation angle TolX            ....  1.000e-05
 DIIS Error             TolErr          ....  5.000e-07


Diagonalization of the overlap matrix:
Smallest eigenvalue                        ... 4.387e-07
Time for diagonalization                   ...    0.241 sec
Threshold for overlap eigenvalues          ... 1.000e-08
Number of eigenvalues below threshold      ... 0
Time for construction of square roots      ...    0.113 sec
Total time needed                          ...    0.359 sec

Time for model grid setup =    0.166 sec

------------------------------
INITIAL GUESS: MODEL POTENTIAL
------------------------------
Loading Hartree-Fock densities                     ... done
Calculating cut-offs                               ... done
Initializing the effective Hamiltonian             ... done
Setting up the integral package (SHARK)            ... done
Starting the Coulomb interaction                   ... done (   1.4 sec)
Reading the grid                                   ... done
Mapping shells                                     ... done
Starting the XC term evaluation                    ... done (   0.8 sec)
  promolecular density results
     # of electrons  =    111.001284726
     EX              =   -106.070142823
     EC              =     -0.003262762
     EX+EC           =   -106.073405585
Transforming the Hamiltonian                       ... done (   0.1 sec)
Diagonalizing the Hamiltonian                      ... done (   0.2 sec)
Back transforming the eigenvectors                 ... done (   0.0 sec)
Now organizing SCF variables                       ... done
                      ------------------
                      INITIAL GUESS DONE (   2.7 sec)
                      ------------------
-------------------
DFT GRID GENERATION
-------------------

General Integration Accuracy     IntAcc      ... 4.388
Radial Grid Type                 RadialGrid  ... OptM3 with GC (2021)
Angular Grid (max. ang.)         AngularGrid ... 4 (Lebedev-302)
Angular grid pruning method      GridPruning ... 4 (adaptive)
Weight generation scheme         WeightScheme... Becke
Basis function cutoff            BFCut       ... 1.0000e-11
Integration weight cutoff        WCut        ... 1.0000e-14
Angular grids for H and He will be reduced by one unit
Partially contracted basis set               ... off
Rotationally invariant grid construction     ... off

Total number of grid points                  ...   119831
Total number of batches                      ...     1884
Average number of points per batch           ...       63
Average number of grid points per atom       ...     5210
Time for grid setup =    1.578 sec

--------------------
COSX GRID GENERATION
--------------------

GRIDX 1
-------
General Integration Accuracy     IntAcc      ... 3.816
Radial Grid Type                 RadialGrid  ... OptM3 with GC (2021)
Angular Grid (max. ang.)         AngularGrid ... 1 (Lebedev-50)
Angular grid pruning method      GridPruning ... 4 (adaptive)
Weight generation scheme         WeightScheme... Becke
Basis function cutoff            BFCut       ... 1.0000e-11
Integration weight cutoff        WCut        ... 1.0000e-14
Angular grids for H and He will be reduced by one unit
Partially contracted basis set               ... on
Rotationally invariant grid construction     ... off

Total number of grid points                  ...    14967
Total number of batches                      ...      244
Average number of points per batch           ...       61
Average number of grid points per atom       ...      651
UseSFitting                                  ... on

GRIDX 2
-------
General Integration Accuracy     IntAcc      ... 4.020
Radial Grid Type                 RadialGrid  ... OptM3 with GC (2021)
Angular Grid (max. ang.)         AngularGrid ... 2 (Lebedev-110)
Angular grid pruning method      GridPruning ... 4 (adaptive)
Weight generation scheme         WeightScheme... Becke
Basis function cutoff            BFCut       ... 1.0000e-11
Integration weight cutoff        WCut        ... 1.0000e-14
Angular grids for H and He will be reduced by one unit
Partially contracted basis set               ... on
Rotationally invariant grid construction     ... off

Total number of grid points                  ...    36788
Total number of batches                      ...      586
Average number of points per batch           ...       62
Average number of grid points per atom       ...     1599
UseSFitting                                  ... on

GRIDX 3
-------
General Integration Accuracy     IntAcc      ... 4.338
Radial Grid Type                 RadialGrid  ... OptM3 with GC (2021)
Angular Grid (max. ang.)         AngularGrid ... 3 (Lebedev-194)
Angular grid pruning method      GridPruning ... 4 (adaptive)
Weight generation scheme         WeightScheme... Becke
Basis function cutoff            BFCut       ... 1.0000e-11
Integration weight cutoff        WCut        ... 1.0000e-14
Angular grids for H and He will be reduced by one unit
Partially contracted basis set               ... on
Rotationally invariant grid construction     ... off

Total number of grid points                  ...    81783
Total number of batches                      ...     1290
Average number of points per batch           ...       63
Average number of grid points per atom       ...     3556
UseSFitting                                  ... on

Time for X-Grid setup             =    3.055 sec

 re-compute Schwartz prescreening matrix in partically contracted basis (1) ...done (   0.100 sec)
--------------
SCF ITERATIONS
--------------
ITER       Energy         Delta-E        Max-DP      RMS-DP      [F,P]     Damp
               ***  Starting incremental Fock matrix formation  ***
  0  -1040.6206129391   0.000000000000 0.22872176  0.00188530  0.3352134 0.7000
  1  -1040.8477203809  -0.227107441736 0.17858991  0.00145652  0.1833895 0.7000
                               ***Turning on DIIS***
  2  -1040.9594699906  -0.111749609734 0.27483702  0.00294206  0.0835327 0.0000
  3  -1041.1483949021  -0.188924911508 0.14520491  0.00095666  0.0817480 0.0000
  4  -1041.1750763333  -0.026681431252 0.02645043  0.00024321  0.0071133 0.0000
  5  -1041.1759275865  -0.000851253172 0.01671717  0.00011289  0.0058257 0.0000
                      *** Initiating the SOSCF procedure ***
                           *** Shutting down DIIS ***
                      *** Re-Reading the Fockian *** 
                      *** Removing any level shift *** 
ITER      Energy       Delta-E        Grad      Rot      Max-DP    RMS-DP
  6  -1041.17612709  -0.0001995060  0.000829  0.000829  0.007803  0.000056
               *** Restarting incremental Fock matrix formation ***
  7  -1041.17617816  -0.0000510674  0.000299  0.000751  0.066338  0.000646
  8  -1041.17619291  -0.0000147498  0.000221  0.000877  0.027900  0.000292
  9  -1041.17619599  -0.0000030850  0.000076  0.000154  0.013832  0.000205
 10  -1041.17619707  -0.0000010784  0.000016  0.000054  0.008702  0.000087
 11  -1041.17619711  -0.0000000380  0.000007  0.000023  0.006536  0.000043
                  ***Gradient check signals convergence***
              ***Rediagonalizing the Fockian in SOSCF/NRSCF***

               *****************************************************
               *                     SUCCESS                       *
               *           SCF CONVERGED AFTER  12 CYCLES          *
               *****************************************************

Old exchange energy                            =    -75.611021913 Eh
New exchange energy                            =    -75.610805106 Eh
Exchange energy change after final integration =      0.000216807 Eh
Total energy after final integration           =  -1041.175980347 Eh
Final COS-X integration done in                =    28.955 sec

----------------
TOTAL SCF ENERGY
----------------

Total Energy       :        -1041.17598035 Eh          -28331.83879 eV

Components:
Nuclear Repulsion  :          983.95469440 Eh           26774.76844 eV
Electronic Energy  :        -2025.13067475 Eh          -55106.60723 eV
One Electron Energy:        -3397.51938544 Eh          -92451.20261 eV
Two Electron Energy:         1372.38871070 Eh           37344.59538 eV
Max COSX asymmetry :            0.00002265 Eh               0.00062 eV

Virial components:
Potential Energy   :        -2079.30874542 Eh          -56580.86748 eV
Kinetic Energy     :         1038.13276508 Eh           28249.02869 eV
Virial Ratio       :            2.00293143


DFT components:
N(Alpha)           :       56.000032732059 electrons
N(Beta)            :       56.000032732059 electrons
N(Total)           :      112.000065464118 electrons
E(X)               :      -32.295166745089 Eh       
E(C)               :       -1.850751060905 Eh       
E(XC)              :      -34.145917805994 Eh       
DFET-embed. en.    :        0.000000000000 Eh       

---------------
SCF CONVERGENCE
---------------

  Last Energy change         ...   -4.2103e-08  Tolerance :   1.0000e-08
  Last MAX-Density change    ...    4.8850e-15  Tolerance :   1.0000e-07
  Last RMS-Density change    ...    1.9662e-17  Tolerance :   5.0000e-09
  Last Orbital Gradient      ...    2.4111e-06  Tolerance :   1.0000e-05
  Last Orbital Rotation      ...    8.0194e-06  Tolerance :   1.0000e-05

             **** THE GBW FILE WAS UPDATED (A.15.avtz.gbw) ****
             **** DENSITY A.15.avtz.scfp WAS UPDATED ****
             **** ENERGY FILE WAS UPDATED (A.15.avtz.en.tmp) ****
             **** THE GBW FILE WAS UPDATED (A.15.avtz.gbw) ****
             **** DENSITY A.15.avtz.scfp WAS UPDATED ****
----------------
ORBITAL ENERGIES
----------------

  NO   OCC          E(Eh)            E(eV) 
   0   2.0000     -90.846344     -2472.0547 
   1   2.0000     -19.898424      -541.4636 
   2   2.0000     -19.828520      -539.5615 
   3   2.0000     -19.827122      -539.5234 
   4   2.0000     -15.036835      -409.1731 
   5   2.0000     -14.887109      -405.0988 
   6   2.0000     -10.856376      -295.4170 
   7   2.0000     -10.788651      -293.5741 
   8   2.0000     -10.747700      -292.4598 
   9   2.0000     -10.746303      -292.4218 
  10   2.0000     -10.739412      -292.2343 
  11   2.0000     -10.737289      -292.1765 
  12   2.0000     -10.729984      -291.9777 
  13   2.0000     -10.728794      -291.9453 
  14   2.0000      -8.588235      -233.6978 
  15   2.0000      -6.374571      -173.4609 
  16   2.0000      -6.372720      -173.4105 
  17   2.0000      -6.371779      -173.3849 
  18   2.0000      -1.170368       -31.8473 
  19   2.0000      -1.137824       -30.9618 
  20   2.0000      -1.035969       -28.1902 
  21   2.0000      -1.022518       -27.8241 
  22   2.0000      -0.948706       -25.8156 
  23   2.0000      -0.880731       -23.9659 
  24   2.0000      -0.840538       -22.8722 
  25   2.0000      -0.819340       -22.2954 
  26   2.0000      -0.781610       -21.2687 
  27   2.0000      -0.682160       -18.5625 
  28   2.0000      -0.648270       -17.6403 
  29   2.0000      -0.628126       -17.0922 
  30   2.0000      -0.576353       -15.6834 
  31   2.0000      -0.570088       -15.5129 
  32   2.0000      -0.503580       -13.7031 
  33   2.0000      -0.492860       -13.4114 
  34   2.0000      -0.486746       -13.2450 
  35   2.0000      -0.461813       -12.5666 
  36   2.0000      -0.456881       -12.4324 
  37   2.0000      -0.440890       -11.9972 
  38   2.0000      -0.429392       -11.6843 
  39   2.0000      -0.425560       -11.5801 
  40   2.0000      -0.417828       -11.3697 
  41   2.0000      -0.403875       -10.9900 
  42   2.0000      -0.390899       -10.6369 
  43   2.0000      -0.378741       -10.3061 
  44   2.0000      -0.350080        -9.5262 
  45   2.0000      -0.335311        -9.1243 
  46   2.0000      -0.294905        -8.0248 
  47   2.0000      -0.283277        -7.7084 
  48   2.0000      -0.265479        -7.2240 
  49   2.0000      -0.261998        -7.1293 
  50   2.0000      -0.247187        -6.7263 
  51   2.0000      -0.232775        -6.3341 
  52   2.0000      -0.212463        -5.7814 
  53   2.0000      -0.209292        -5.6951 
  54   2.0000      -0.195813        -5.3284 
  55   2.0000      -0.157051        -4.2736 
  56   0.0000       0.074834         2.0363 
  57   0.0000       0.093241         2.5372 
  58   0.0000       0.096638         2.6296 
  59   0.0000       0.104682         2.8486 
  60   0.0000       0.112829         3.0702 
  61   0.0000       0.120622         3.2823 
  62   0.0000       0.126591         3.4447 
  63   0.0000       0.131922         3.5898 
  64   0.0000       0.136640         3.7182 
  65   0.0000       0.138441         3.7672 
  66   0.0000       0.150386         4.0922 
  67   0.0000       0.160004         4.3539 
  68   0.0000       0.163354         4.4451 
  69   0.0000       0.163524         4.4497 
  70   0.0000       0.168676         4.5899 
  71   0.0000       0.176510         4.8031 
  72   0.0000       0.178758         4.8643 
  73   0.0000       0.180816         4.9203 
  74   0.0000       0.185685         5.0528 
  75   0.0000       0.189964         5.1692 
  76   0.0000       0.195467         5.3189 
  77   0.0000       0.200062         5.4440 
  78   0.0000       0.203449         5.5361 
  79   0.0000       0.205709         5.5976 
  80   0.0000       0.209546         5.7020 
  81   0.0000       0.213751         5.8165 
  82   0.0000       0.220055         5.9880 
  83   0.0000       0.225003         6.1226 
  84   0.0000       0.226228         6.1560 
  85   0.0000       0.228861         6.2276 
  86   0.0000       0.231479         6.2989 
  87   0.0000       0.236898         6.4463 
  88   0.0000       0.242969         6.6115 
  89   0.0000       0.245788         6.6882 
  90   0.0000       0.250354         6.8125 
  91   0.0000       0.257727         7.0131 
  92   0.0000       0.261299         7.1103 
  93   0.0000       0.265597         7.2273 
  94   0.0000       0.268242         7.2992 
  95   0.0000       0.276084         7.5126 
  96   0.0000       0.279019         7.5925 
  97   0.0000       0.286667         7.8006 
  98   0.0000       0.292092         7.9482 
  99   0.0000       0.296320         8.0633 
 100   0.0000       0.303751         8.2655 
 101   0.0000       0.307076         8.3560 
 102   0.0000       0.309816         8.4305 
 103   0.0000       0.314145         8.5483 
 104   0.0000       0.320596         8.7239 
 105   0.0000       0.323669         8.8075 
 106   0.0000       0.326146         8.8749 
 107   0.0000       0.328363         8.9352 
 108   0.0000       0.333956         9.0874 
 109   0.0000       0.337304         9.1785 
 110   0.0000       0.340358         9.2616 
 111   0.0000       0.343609         9.3501 
 112   0.0000       0.344682         9.3793 
 113   0.0000       0.348470         9.4824 
 114   0.0000       0.351225         9.5573 
 115   0.0000       0.359029         9.7697 
 116   0.0000       0.364304         9.9132 
 117   0.0000       0.365673         9.9505 
 118   0.0000       0.371576        10.1111 
 119   0.0000       0.374382        10.1874 
 120   0.0000       0.376780        10.2527 
 121   0.0000       0.380687        10.3590 
 122   0.0000       0.384025        10.4498 
 123   0.0000       0.386024        10.5042 
 124   0.0000       0.387743        10.5510 
 125   0.0000       0.389059        10.5868 
 126   0.0000       0.391814        10.6618 
 127   0.0000       0.392691        10.6857 
 128   0.0000       0.399059        10.8590 
 129   0.0000       0.402164        10.9434 
 130   0.0000       0.406348        11.0573 
 131   0.0000       0.410605        11.1731 
 132   0.0000       0.413887        11.2624 
 133   0.0000       0.417189        11.3523 
 134   0.0000       0.421010        11.4563 
 135   0.0000       0.428768        11.6674 
 136   0.0000       0.429109        11.6767 
 137   0.0000       0.439694        11.9647 
 138   0.0000       0.439981        11.9725 
 139   0.0000       0.443405        12.0657 
 140   0.0000       0.447995        12.1906 
 141   0.0000       0.452465        12.3122 
 142   0.0000       0.455442        12.3932 
 143   0.0000       0.461582        12.5603 
 144   0.0000       0.466615        12.6972 
 145   0.0000       0.468848        12.7580 
 146   0.0000       0.469475        12.7751 
 147   0.0000       0.474490        12.9115 
 148   0.0000       0.477175        12.9846 
 149   0.0000       0.483938        13.1686 
 150   0.0000       0.489442        13.3184 
 151   0.0000       0.489661        13.3244 
 152   0.0000       0.497492        13.5375 
 153   0.0000       0.503387        13.6979 
 154   0.0000       0.508401        13.8343 
 155   0.0000       0.513167        13.9640 
 156   0.0000       0.515712        14.0332 
 157   0.0000       0.521289        14.1850 
 158   0.0000       0.525419        14.2974 
 159   0.0000       0.530104        14.4249 
 160   0.0000       0.531510        14.4631 
 161   0.0000       0.534225        14.5370 
 162   0.0000       0.537143        14.6164 
 163   0.0000       0.539955        14.6929 
 164   0.0000       0.544030        14.8038 
 165   0.0000       0.546418        14.8688 
 166   0.0000       0.553821        15.0702 
 167   0.0000       0.555687        15.1210 
 168   0.0000       0.558792        15.2055 
 169   0.0000       0.562555        15.3079 
 170   0.0000       0.566542        15.4164 
 171   0.0000       0.569893        15.5076 
 172   0.0000       0.576146        15.6777 
 173   0.0000       0.578579        15.7439 
 174   0.0000       0.579712        15.7748 
 175   0.0000       0.584333        15.9005 
 176   0.0000       0.587615        15.9898 
 177   0.0000       0.594388        16.1741 
 178   0.0000       0.597764        16.2660 
 179   0.0000       0.601818        16.3763 
 180   0.0000       0.605791        16.4844 
 181   0.0000       0.612293        16.6614 
 182   0.0000       0.614563        16.7231 
 183   0.0000       0.621152        16.9024 
 184   0.0000       0.624089        16.9823 
 185   0.0000       0.626455        17.0467 
 186   0.0000       0.629526        17.1303 
 187   0.0000       0.634554        17.2671 
 188   0.0000       0.638788        17.3823 
 189   0.0000       0.642569        17.4852 
 190   0.0000       0.643977        17.5235 
 191   0.0000       0.650168        17.6920 
 192   0.0000       0.659532        17.9468 
 193   0.0000       0.665511        18.1095 
 194   0.0000       0.673052        18.3147 
 195   0.0000       0.681558        18.5461 
 196   0.0000       0.682425        18.5697 
 197   0.0000       0.689977        18.7752 
 198   0.0000       0.692499        18.8439 
 199   0.0000       0.698899        19.0180 
 200   0.0000       0.707215        19.2443 
 201   0.0000       0.708046        19.2669 
 202   0.0000       0.721325        19.6283 
 203   0.0000       0.725376        19.7385 
 204   0.0000       0.725829        19.7508 
 205   0.0000       0.731896        19.9159 
 206   0.0000       0.737661        20.0728 
 207   0.0000       0.746867        20.3233 
 208   0.0000       0.751858        20.4591 
 209   0.0000       0.761522        20.7221 
 210   0.0000       0.763180        20.7672 
 211   0.0000       0.770558        20.9680 
 212   0.0000       0.772973        21.0337 
 213   0.0000       0.780359        21.2347 
 214   0.0000       0.786011        21.3884 
 215   0.0000       0.792232        21.5577 
 216   0.0000       0.796132        21.6639 
 217   0.0000       0.806364        21.9423 
 218   0.0000       0.815183        22.1823 
 219   0.0000       0.816152        22.2086 
 220   0.0000       0.820080        22.3155 
 221   0.0000       0.822858        22.3911 
 222   0.0000       0.832813        22.6620 
 223   0.0000       0.838663        22.8212 
 224   0.0000       0.839547        22.8452 
 225   0.0000       0.847360        23.0578 
 226   0.0000       0.850788        23.1511 
 227   0.0000       0.852036        23.1851 
 228   0.0000       0.858921        23.3724 
 229   0.0000       0.867237        23.5987 
 230   0.0000       0.868060        23.6211 
 231   0.0000       0.874366        23.7927 
 232   0.0000       0.884070        24.0568 
 233   0.0000       0.890268        24.2254 
 234   0.0000       0.891764        24.2661 
 235   0.0000       0.900233        24.4966 
 236   0.0000       0.904277        24.6066 
 237   0.0000       0.910708        24.7816 
 238   0.0000       0.915973        24.9249 
 239   0.0000       0.922458        25.1014 
 240   0.0000       0.926848        25.2208 
 241   0.0000       0.929002        25.2794 
 242   0.0000       0.935463        25.4552 
 243   0.0000       0.938796        25.5459 
 244   0.0000       0.942632        25.6503 
 245   0.0000       0.944357        25.6973 
 246   0.0000       0.952125        25.9086 
 247   0.0000       0.957487        26.0545 
 248   0.0000       0.960202        26.1284 
 249   0.0000       0.964043        26.2329 
 250   0.0000       0.969752        26.3883 
 251   0.0000       0.972764        26.4703 
 252   0.0000       0.978854        26.6360 
 253   0.0000       0.980899        26.6916 
 254   0.0000       0.988331        26.8938 
 255   0.0000       0.995394        27.0861 
 256   0.0000       1.001891        27.2628 
 257   0.0000       1.006496        27.3882 
 258   0.0000       1.008948        27.4549 
 259   0.0000       1.014456        27.6048 
 260   0.0000       1.022227        27.8162 
 261   0.0000       1.023380        27.8476 
 262   0.0000       1.030693        28.0466 
 263   0.0000       1.033193        28.1146 
 264   0.0000       1.034420        28.1480 
 265   0.0000       1.038200        28.2508 
 266   0.0000       1.044219        28.4147 
 267   0.0000       1.049807        28.5667 
 268   0.0000       1.055235        28.7144 
 269   0.0000       1.063792        28.9473 
 270   0.0000       1.066987        29.0342 
 271   0.0000       1.068729        29.0816 
 272   0.0000       1.070572        29.1317 
 273   0.0000       1.076536        29.2940 
 274   0.0000       1.080006        29.3885 
 275   0.0000       1.088472        29.6188 
 276   0.0000       1.093779        29.7632 
 277   0.0000       1.097000        29.8509 
 278   0.0000       1.102173        29.9916 
 279   0.0000       1.104434        30.0532 
 280   0.0000       1.109119        30.1807 
 281   0.0000       1.113100        30.2890 
 282   0.0000       1.118037        30.4233 
 283   0.0000       1.120161        30.4811 
 284   0.0000       1.125392        30.6235 
 285   0.0000       1.131723        30.7958 
 286   0.0000       1.133169        30.8351 
 287   0.0000       1.138952        30.9924 
 288   0.0000       1.144294        31.1378 
 289   0.0000       1.146045        31.1855 
 290   0.0000       1.149526        31.2802 
 291   0.0000       1.155515        31.4432 
 292   0.0000       1.160628        31.5823 
 293   0.0000       1.168034        31.7838 
 294   0.0000       1.171132        31.8681 
 295   0.0000       1.175776        31.9945 
 296   0.0000       1.178145        32.0589 
 297   0.0000       1.191693        32.4276 
 298   0.0000       1.193538        32.4778 
 299   0.0000       1.199077        32.6285 
 300   0.0000       1.201647        32.6985 
 301   0.0000       1.204668        32.7807 
 302   0.0000       1.210235        32.9322 
 303   0.0000       1.211238        32.9595 
 304   0.0000       1.215082        33.0641 
 305   0.0000       1.217431        33.1280 
 306   0.0000       1.225827        33.3565 
 307   0.0000       1.230001        33.4700 
 308   0.0000       1.233612        33.5683 
 309   0.0000       1.238760        33.7084 
 310   0.0000       1.242371        33.8066 
 311   0.0000       1.248068        33.9617 
 312   0.0000       1.255414        34.1615 
 313   0.0000       1.263578        34.3837 
 314   0.0000       1.264612        34.4118 
 315   0.0000       1.269003        34.5313 
 316   0.0000       1.276099        34.7244 
 317   0.0000       1.279769        34.8243 
 318   0.0000       1.287919        35.0461 
 319   0.0000       1.293839        35.2071 
 320   0.0000       1.297711        35.3125 
 321   0.0000       1.300196        35.3801 
 322   0.0000       1.303758        35.4771 
 323   0.0000       1.316321        35.8189 
 324   0.0000       1.317947        35.8632 
 325   0.0000       1.321331        35.9553 
 326   0.0000       1.324599        36.0442 
 327   0.0000       1.333554        36.2878 
 328   0.0000       1.336861        36.3778 
 329   0.0000       1.343563        36.5602 
 330   0.0000       1.354012        36.8445 
 331   0.0000       1.359276        36.9878 
 332   0.0000       1.364145        37.1203 
 333   0.0000       1.371038        37.3078 
 334   0.0000       1.383151        37.6374 
 335   0.0000       1.384497        37.6741 
 336   0.0000       1.391075        37.8531 
 337   0.0000       1.399675        38.0871 
 338   0.0000       1.401801        38.1450 
 339   0.0000       1.410026        38.3688 
 340   0.0000       1.420977        38.6668 
 341   0.0000       1.422840        38.7175 
 342   0.0000       1.430142        38.9161 
 343   0.0000       1.432987        38.9936 
 344   0.0000       1.438368        39.1400 
 345   0.0000       1.450846        39.4795 
 346   0.0000       1.453378        39.5484 
 347   0.0000       1.457062        39.6487 
 348   0.0000       1.464542        39.8522 
 349   0.0000       1.473571        40.0979 
 350   0.0000       1.480099        40.2755 
 351   0.0000       1.485349        40.4184 
 352   0.0000       1.489185        40.5228 
 353   0.0000       1.495514        40.6950 
 354   0.0000       1.498936        40.7881 
 355   0.0000       1.504111        40.9290 
 356   0.0000       1.510065        41.0910 
 357   0.0000       1.515575        41.2409 
 358   0.0000       1.522090        41.4182 
 359   0.0000       1.530134        41.6371 
 360   0.0000       1.531158        41.6649 
 361   0.0000       1.541398        41.9436 
 362   0.0000       1.549912        42.1752 
 363   0.0000       1.560109        42.4527 
 364   0.0000       1.561422        42.4885 
 365   0.0000       1.570406        42.7329 
 366   0.0000       1.578555        42.9547 
 367   0.0000       1.587476        43.1974 
 368   0.0000       1.589181        43.2438 
 369   0.0000       1.597999        43.4838 
 370   0.0000       1.600906        43.5629 
 371   0.0000       1.613324        43.9008 
 372   0.0000       1.620929        44.1077 
 373   0.0000       1.625815        44.2407 
 374   0.0000       1.636416        44.5291 
 375   0.0000       1.638993        44.5993 
 376   0.0000       1.647287        44.8250 
 377   0.0000       1.652873        44.9770 
 378   0.0000       1.659745        45.1640 
 379   0.0000       1.669502        45.4295 
 380   0.0000       1.673837        45.5474 
 381   0.0000       1.677992        45.6605 
 382   0.0000       1.686410        45.8895 
 383   0.0000       1.692771        46.0627 
 384   0.0000       1.696617        46.1673 
 385   0.0000       1.701491        46.2999 
 386   0.0000       1.711573        46.5743 
 387   0.0000       1.718429        46.7608 
 388   0.0000       1.735770        47.2327 
 389   0.0000       1.736767        47.2598 
 390   0.0000       1.743076        47.4315 
 391   0.0000       1.751083        47.6494 
 392   0.0000       1.751741        47.6673 
 393   0.0000       1.767369        48.0926 
 394   0.0000       1.771315        48.1999 
 395   0.0000       1.778407        48.3929 
 396   0.0000       1.784847        48.5682 
 397   0.0000       1.794223        48.8233 
 398   0.0000       1.801237        49.0142 
 399   0.0000       1.809632        49.2426 
 400   0.0000       1.819657        49.5154 
 401   0.0000       1.825308        49.6692 
 402   0.0000       1.839757        50.0623 
 403   0.0000       1.847553        50.2745 
 404   0.0000       1.851960        50.3944 
 405   0.0000       1.865385        50.7597 
 406   0.0000       1.866657        50.7943 
 407   0.0000       1.868840        50.8537 
 408   0.0000       1.877365        51.0857 
 409   0.0000       1.886550        51.3356 
 410   0.0000       1.890304        51.4378 
 411   0.0000       1.901605        51.7453 
 412   0.0000       1.913330        52.0644 
 413   0.0000       1.922392        52.3109 
 414   0.0000       1.929905        52.5154 
 415   0.0000       1.933968        52.6259 
 416   0.0000       1.943415        52.8830 
 417   0.0000       1.955660        53.2162 
 418   0.0000       1.957879        53.2766 
 419   0.0000       1.973550        53.7030 
 420   0.0000       1.976698        53.7887 
 421   0.0000       1.981204        53.9113 
 422   0.0000       1.995498        54.3003 
 423   0.0000       1.999343        54.4049 
 424   0.0000       2.004143        54.5355 
 425   0.0000       2.006873        54.6098 
 426   0.0000       2.018704        54.9317 
 427   0.0000       2.033601        55.3371 
 428   0.0000       2.039642        55.5015 
 429   0.0000       2.040384        55.5217 
 430   0.0000       2.044643        55.6376 
 431   0.0000       2.060521        56.0696 
 432   0.0000       2.066501        56.2324 
 433   0.0000       2.072706        56.4012 
 434   0.0000       2.082004        56.6542 
 435   0.0000       2.086633        56.7802 
 436   0.0000       2.102523        57.2125 
 437   0.0000       2.105241        57.2865 
 438   0.0000       2.111871        57.4669 
 439   0.0000       2.119789        57.6824 
 440   0.0000       2.130200        57.9657 
 441   0.0000       2.135343        58.1056 
 442   0.0000       2.142375        58.2970 
 443   0.0000       2.146454        58.4080 
 444   0.0000       2.156562        58.6830 
 445   0.0000       2.163461        58.8708 
 446   0.0000       2.164379        58.8957 
 447   0.0000       2.176318        59.2206 
 448   0.0000       2.182644        59.3928 
 449   0.0000       2.198424        59.8222 
 450   0.0000       2.202889        59.9437 
 451   0.0000       2.208716        60.1022 
 452   0.0000       2.212138        60.1953 
 453   0.0000       2.218777        60.3760 
 454   0.0000       2.225889        60.5695 
 455   0.0000       2.238801        60.9209 
 456   0.0000       2.245033        61.0905 
 457   0.0000       2.252493        61.2935 
 458   0.0000       2.258408        61.4544 
 459   0.0000       2.285716        62.1975 
 460   0.0000       2.289649        62.3045 
 461   0.0000       2.303845        62.6908 
 462   0.0000       2.313496        62.9534 
 463   0.0000       2.316177        63.0264 
 464   0.0000       2.324288        63.2471 
 465   0.0000       2.332100        63.4597 
 466   0.0000       2.346054        63.8394 
 467   0.0000       2.350534        63.9613 
 468   0.0000       2.363556        64.3156 
 469   0.0000       2.367176        64.4141 
 470   0.0000       2.381163        64.7947 
 471   0.0000       2.396761        65.2192 
 472   0.0000       2.400373        65.3175 
 473   0.0000       2.405537        65.4580 
 474   0.0000       2.414225        65.6944 
 475   0.0000       2.419361        65.8341 
 476   0.0000       2.425129        65.9911 
 477   0.0000       2.435713        66.2791 
 478   0.0000       2.440864        66.4193 
 479   0.0000       2.446009        66.5593 
 480   0.0000       2.451392        66.7058 
 481   0.0000       2.458315        66.8942 
 482   0.0000       2.464851        67.0720 
 483   0.0000       2.480937        67.5097 
 484   0.0000       2.484074        67.5951 
 485   0.0000       2.487973        67.7012 
 486   0.0000       2.494429        67.8769 
 487   0.0000       2.500888        68.0526 
 488   0.0000       2.517909        68.5158 
 489   0.0000       2.525941        68.7343 
 490   0.0000       2.534033        68.9546 
 491   0.0000       2.545614        69.2697 
 492   0.0000       2.554921        69.5229 
 493   0.0000       2.557853        69.6027 
 494   0.0000       2.574821        70.0644 
 495   0.0000       2.577994        70.1508 
 496   0.0000       2.583427        70.2986 
 497   0.0000       2.590326        70.4864 
 498   0.0000       2.591441        70.5167 
 499   0.0000       2.597698        70.6870 
 500   0.0000       2.613357        71.1131 
 501   0.0000       2.621033        71.3219 
 502   0.0000       2.631816        71.6154 
 503   0.0000       2.634417        71.6861 
 504   0.0000       2.652735        72.1846 
 505   0.0000       2.657734        72.3206 
 506   0.0000       2.678186        72.8771 
 507   0.0000       2.681540        72.9684 
 508   0.0000       2.684412        73.0466 
 509   0.0000       2.695734        73.3546 
 510   0.0000       2.711017        73.7705 
 511   0.0000       2.720565        74.0303 
 512   0.0000       2.731687        74.3330 
 513   0.0000       2.744262        74.6752 
 514   0.0000       2.755242        74.9740 
 515   0.0000       2.767454        75.3063 
 516   0.0000       2.771939        75.4283 
 517   0.0000       2.783949        75.7551 
 518   0.0000       2.798102        76.1402 
 519   0.0000       2.802099        76.2490 
 520   0.0000       2.830937        77.0337 
 521   0.0000       2.839958        77.2792 
 522   0.0000       2.851422        77.5911 
 523   0.0000       2.862294        77.8870 
 524   0.0000       2.868627        78.0593 
 525   0.0000       2.872511        78.1650 
 526   0.0000       2.893911        78.7473 
 527   0.0000       2.901330        78.9492 
 528   0.0000       2.916364        79.3583 
 529   0.0000       2.921623        79.5014 
 530   0.0000       2.929423        79.7136 
 531   0.0000       2.952045        80.3292 
 532   0.0000       2.964475        80.6675 
 533   0.0000       2.973562        80.9147 
 534   0.0000       2.984227        81.2049 
 535   0.0000       2.996875        81.5491 
 536   0.0000       3.003608        81.7323 
 537   0.0000       3.020293        82.1863 
 538   0.0000       3.035864        82.6101 
 539   0.0000       3.043196        82.8096 
 540   0.0000       3.063686        83.3671 
 541   0.0000       3.078192        83.7619 
 542   0.0000       3.085783        83.9684 
 543   0.0000       3.096463        84.2590 
 544   0.0000       3.133378        85.2635 
 545   0.0000       3.135618        85.3245 
 546   0.0000       3.150796        85.7375 
 547   0.0000       3.169840        86.2557 
 548   0.0000       3.180812        86.5543 
 549   0.0000       3.199959        87.0753 
 550   0.0000       3.226179        87.7888 
 551   0.0000       3.235425        88.0404 
 552   0.0000       3.270188        88.9863 
 553   0.0000       3.284010        89.3625 
 554   0.0000       3.287815        89.4660 
 555   0.0000       3.299676        89.7888 
 556   0.0000       3.313689        90.1701 
 557   0.0000       3.321683        90.3876 
 558   0.0000       3.340882        90.9100 
 559   0.0000       3.353293        91.2477 
 560   0.0000       3.359699        91.4221 
 561   0.0000       3.375563        91.8537 
 562   0.0000       3.385996        92.1376 
 563   0.0000       3.395106        92.3855 
 564   0.0000       3.405840        92.6776 
 565   0.0000       3.417614        92.9980 
 566   0.0000       3.424271        93.1791 
 567   0.0000       3.429644        93.3253 
 568   0.0000       3.446506        93.7842 
 569   0.0000       3.447847        93.8207 
 570   0.0000       3.461437        94.1905 
 571   0.0000       3.461900        94.2031 
 572   0.0000       3.474056        94.5339 
 573   0.0000       3.495267        95.1110 
 574   0.0000       3.506118        95.4063 
 575   0.0000       3.519836        95.7796 
 576   0.0000       3.530192        96.0614 
 577   0.0000       3.537137        96.2504 
 578   0.0000       3.542250        96.3895 
 579   0.0000       3.550130        96.6040 
 580   0.0000       3.560001        96.8725 
 581   0.0000       3.570937        97.1701 
 582   0.0000       3.585175        97.5576 
 583   0.0000       3.593379        97.7808 
 584   0.0000       3.596774        97.8732 
 585   0.0000       3.607050        98.1528 
 586   0.0000       3.611911        98.2851 
 587   0.0000       3.628569        98.7384 
 588   0.0000       3.637117        98.9710 
 589   0.0000       3.641471        99.0895 
 590   0.0000       3.655004        99.4577 
 591   0.0000       3.677336       100.0654 
 592   0.0000       3.680638       100.1553 
 593   0.0000       3.690688       100.4287 
 594   0.0000       3.700088       100.6845 
 595   0.0000       3.713972       101.0623 
 596   0.0000       3.727091       101.4193 
 597   0.0000       3.741326       101.8067 
 598   0.0000       3.746771       101.9548 
 599   0.0000       3.760182       102.3198 
 600   0.0000       3.764015       102.4241 
 601   0.0000       3.769242       102.5663 
 602   0.0000       3.773220       102.6745 
 603   0.0000       3.781228       102.8924 
 604   0.0000       3.802558       103.4729 
 605   0.0000       3.810286       103.6832 
 606   0.0000       3.815259       103.8185 
 607   0.0000       3.837328       104.4190 
 608   0.0000       3.840538       104.5063 
 609   0.0000       3.850943       104.7895 
 610   0.0000       3.857038       104.9553 
 611   0.0000       3.864439       105.1567 
 612   0.0000       3.884502       105.7027 
 613   0.0000       3.887835       105.7934 
 614   0.0000       3.889850       105.8482 
 615   0.0000       3.904137       106.2370 
 616   0.0000       3.921757       106.7164 
 617   0.0000       3.928053       106.8877 
 618   0.0000       3.931895       106.9923 
 619   0.0000       3.936380       107.1143 
 620   0.0000       3.947836       107.4261 
 621   0.0000       3.951341       107.5214 
 622   0.0000       3.965021       107.8937 
 623   0.0000       3.981187       108.3336 
 624   0.0000       3.992175       108.6326 
 625   0.0000       3.996126       108.7401 
 626   0.0000       3.998225       108.7972 
 627   0.0000       4.012069       109.1739 
 628   0.0000       4.037281       109.8600 
 629   0.0000       4.050086       110.2084 
 630   0.0000       4.060333       110.4873 
 631   0.0000       4.067624       110.6857 
 632   0.0000       4.074254       110.8661 
 633   0.0000       4.075907       110.9111 
 634   0.0000       4.098404       111.5232 
 635   0.0000       4.104970       111.7019 
 636   0.0000       4.125272       112.2543 
 637   0.0000       4.132430       112.4491 
 638   0.0000       4.143932       112.7621 
 639   0.0000       4.150262       112.9344 
 640   0.0000       4.160141       113.2032 
 641   0.0000       4.163550       113.2960 
 642   0.0000       4.176693       113.6536 
 643   0.0000       4.191507       114.0567 
 644   0.0000       4.192004       114.0702 
 645   0.0000       4.208772       114.5265 
 646   0.0000       4.213351       114.6511 
 647   0.0000       4.237468       115.3074 
 648   0.0000       4.244635       115.5024 
 649   0.0000       4.255197       115.7898 
 650   0.0000       4.269436       116.1773 
 651   0.0000       4.280242       116.4713 
 652   0.0000       4.290732       116.7568 
 653   0.0000       4.297946       116.9530 
 654   0.0000       4.303693       117.1094 
 655   0.0000       4.322602       117.6240 
 656   0.0000       4.335262       117.9685 
 657   0.0000       4.346835       118.2834 
 658   0.0000       4.353226       118.4573 
 659   0.0000       4.361797       118.6905 
 660   0.0000       4.365342       118.7870 
 661   0.0000       4.380047       119.1871 
 662   0.0000       4.396952       119.6472 
 663   0.0000       4.400567       119.7455 
 664   0.0000       4.425045       120.4116 
 665   0.0000       4.438140       120.7679 
 666   0.0000       4.442833       120.8956 
 667   0.0000       4.450959       121.1167 
 668   0.0000       4.456739       121.2740 
 669   0.0000       4.468692       121.5993 
 670   0.0000       4.475841       121.7938 
 671   0.0000       4.491269       122.2136 
 672   0.0000       4.497639       122.3870 
 673   0.0000       4.507016       122.6421 
 674   0.0000       4.518487       122.9543 
 675   0.0000       4.526835       123.1814 
 676   0.0000       4.534225       123.3825 
 677   0.0000       4.553498       123.9070 
 678   0.0000       4.566644       124.2647 
 679   0.0000       4.576855       124.5426 
 680   0.0000       4.589083       124.8753 
 681   0.0000       4.611522       125.4859 
 682   0.0000       4.621008       125.7440 
 683   0.0000       4.628327       125.9432 
 684   0.0000       4.657822       126.7458 
 685   0.0000       4.667619       127.0124 
 686   0.0000       4.670758       127.0978 
 687   0.0000       4.675798       127.2349 
 688   0.0000       4.683961       127.4570 
 689   0.0000       4.711309       128.2012 
 690   0.0000       4.729484       128.6958 
 691   0.0000       4.737985       128.9271 
 692   0.0000       4.743178       129.0684 
 693   0.0000       4.760327       129.5351 
 694   0.0000       4.766925       129.7146 
 695   0.0000       4.771724       129.8452 
 696   0.0000       4.785788       130.2279 
 697   0.0000       4.791202       130.3752 
 698   0.0000       4.815734       131.0428 
 699   0.0000       4.836497       131.6078 
 700   0.0000       4.845238       131.8456 
 701   0.0000       4.852683       132.0482 
 702   0.0000       4.879461       132.7769 
 703   0.0000       4.887156       132.9863 
 704   0.0000       4.894169       133.1771 
 705   0.0000       4.906798       133.5208 
 706   0.0000       4.920885       133.9041 
 707   0.0000       4.934381       134.2713 
 708   0.0000       4.944910       134.5578 
 709   0.0000       4.948683       134.6605 
 710   0.0000       4.963384       135.0605 
 711   0.0000       4.980242       135.5193 
 712   0.0000       4.989606       135.7741 
 713   0.0000       5.002500       136.1249 
 714   0.0000       5.018640       136.5641 
 715   0.0000       5.022288       136.6634 
 716   0.0000       5.035075       137.0113 
 717   0.0000       5.036758       137.0571 
 718   0.0000       5.039913       137.1430 
 719   0.0000       5.057317       137.6166 
 720   0.0000       5.073450       138.0556 
 721   0.0000       5.088992       138.4785 
 722   0.0000       5.107032       138.9694 
 723   0.0000       5.121983       139.3762 
 724   0.0000       5.130532       139.6089 
 725   0.0000       5.152949       140.2189 
 726   0.0000       5.170311       140.6913 
 727   0.0000       5.181878       141.0061 
 728   0.0000       5.187838       141.1682 
 729   0.0000       5.209275       141.7516 
 730   0.0000       5.216429       141.9463 
 731   0.0000       5.218346       141.9984 
 732   0.0000       5.224932       142.1776 
 733   0.0000       5.256233       143.0294 
 734   0.0000       5.273803       143.5075 
 735   0.0000       5.275740       143.5602 
 736   0.0000       5.303888       144.3261 
 737   0.0000       5.319002       144.7374 
 738   0.0000       5.334060       145.1471 
 739   0.0000       5.351490       145.6215 
 740   0.0000       5.353355       145.6722 
 741   0.0000       5.364671       145.9801 
 742   0.0000       5.394512       146.7921 
 743   0.0000       5.416930       147.4022 
 744   0.0000       5.427725       147.6959 
 745   0.0000       5.432000       147.8122 
 746   0.0000       5.436167       147.9256 
 747   0.0000       5.458345       148.5291 
 748   0.0000       5.484099       149.2299 
 749   0.0000       5.512238       149.9956 
 750   0.0000       5.538615       150.7134 
 751   0.0000       5.551421       151.0618 
 752   0.0000       5.575514       151.7175 
 753   0.0000       5.582842       151.9169 
 754   0.0000       5.605958       152.5459 
 755   0.0000       5.612731       152.7302 
 756   0.0000       5.624624       153.0538 
 757   0.0000       5.641880       153.5233 
 758   0.0000       5.657966       153.9611 
 759   0.0000       5.698187       155.0555 
 760   0.0000       5.718444       155.6068 
 761   0.0000       5.744651       156.3199 
 762   0.0000       5.749843       156.4612 
 763   0.0000       5.757897       156.6803 
 764   0.0000       5.765320       156.8823 
 765   0.0000       5.801402       157.8642 
 766   0.0000       5.840247       158.9212 
 767   0.0000       5.863153       159.5445 
 768   0.0000       5.881721       160.0498 
 769   0.0000       5.900464       160.5598 
 770   0.0000       5.919706       161.0834 
 771   0.0000       5.981219       162.7573 
 772   0.0000       6.010411       163.5516 
 773   0.0000       6.035616       164.2375 
 774   0.0000       6.048737       164.5945 
 775   0.0000       6.065873       165.0608 
 776   0.0000       6.087890       165.6599 
 777   0.0000       6.094757       165.8468 
 778   0.0000       6.121659       166.5788 
 779   0.0000       6.130720       166.8254 
 780   0.0000       6.149912       167.3476 
 781   0.0000       6.200914       168.7354 
 782   0.0000       6.219024       169.2283 
 783   0.0000       6.256405       170.2454 
 784   0.0000       6.297365       171.3600 
 785   0.0000       6.325379       172.1223 
 786   0.0000       6.330141       172.2519 
 787   0.0000       6.397806       174.0932 
 788   0.0000       6.428926       174.9400 
 789   0.0000       6.475396       176.2045 
 790   0.0000       6.494489       176.7240 
 791   0.0000       6.508844       177.1147 
 792   0.0000       6.537185       177.8858 
 793   0.0000       6.614055       179.9776 
 794   0.0000       6.667950       181.4441 
 795   0.0000       6.699800       182.3108 
 796   0.0000       6.718852       182.8293 
 797   0.0000       6.723176       182.9469 
 798   0.0000       6.727459       183.0635 
 799   0.0000       6.750715       183.6963 
 800   0.0000       6.765138       184.0888 
 801   0.0000       6.780220       184.4992 
 802   0.0000       6.806497       185.2142 
 803   0.0000       6.822746       185.6564 
 804   0.0000       6.840628       186.1430 
 805   0.0000       6.862987       186.7514 
 806   0.0000       6.883633       187.3132 
[...]
      py      :     0.603823
      dz2     :     0.198939  d :     0.725048
      dxz     :     0.242160
      dyz     :     0.122737
      dx2y2   :     0.090521
      dxy     :     0.070690
      f0      :     0.057357  f :     0.345101
      f+1     :     0.126353
      f-1     :     0.038867
      f+2     :     0.034146
      f-2     :     0.037783
      f+3     :     0.025057
      f-3     :     0.025538
  8 H s       :     0.650807  s :     0.650807
      pz      :     0.102235  p :     0.313458
      px      :     0.123187
      py      :     0.088036
      dz2     :     0.051043  d :     0.226238
      dxz     :     0.057504
      dyz     :     0.020208
      dx2y2   :     0.049561
      dxy     :     0.047922
  9 C s       :     2.484107  s :     2.484107
      pz      :     0.845668  p :     2.287448
      px      :     0.844087
      py      :     0.597694
      dz2     :     0.187056  d :     0.719967
      dxz     :     0.259148
      dyz     :     0.108001
      dx2y2   :     0.095751
      dxy     :     0.070011
      f0      :     0.056883  f :     0.347754
      f+1     :     0.123192
      f-1     :     0.045078
      f+2     :     0.036472
      f-2     :     0.028316
      f+3     :     0.029920
      f-3     :     0.027893
 10 H s       :     0.656540  s :     0.656540
      pz      :     0.114697  p :     0.316062
      px      :     0.122291
      py      :     0.079074
      dz2     :     0.064626  d :     0.229311
      dxz     :     0.053490
      dyz     :     0.024362
      dx2y2   :     0.046178
      dxy     :     0.040655
 11 S s       :     4.500403  s :     4.500403
      pz      :     2.659930  p :     8.109739
      px      :     2.714223
      py      :     2.735587
      dz2     :     0.462574  d :     2.293082
      dxz     :     0.390508
      dyz     :     0.381946
      dx2y2   :     0.553609
      dxy     :     0.504445
      f0      :     0.128602  f :     1.234804
      f+1     :     0.178003
      f-1     :     0.107007
      f+2     :     0.169358
      f-2     :     0.127524
      f+3     :     0.334371
      f-3     :     0.189939
 12 O s       :     3.327670  s :     3.327670
      pz      :     1.474014  p :     4.390520
      px      :     1.434043
      py      :     1.482463
      dz2     :     0.041376  d :     0.225815
      dxz     :     0.049526
      dyz     :     0.022487
      dx2y2   :     0.056786
      dxy     :     0.055640
      f0      :     0.006430  f :     0.069258
      f+1     :     0.011781
      f-1     :     0.004648
      f+2     :     0.007356
      f-2     :     0.012078
      f+3     :     0.013379
      f-3     :     0.013587
 13 O s       :     3.329905  s :     3.329905
      pz      :     1.483596  p :     4.397269
      px      :     1.417553
      py      :     1.496119
      dz2     :     0.037991  d :     0.223243
      dxz     :     0.054574
      dyz     :     0.012458
      dx2y2   :     0.061710
      dxy     :     0.056510
      f0      :     0.005927  f :     0.067399
      f+1     :     0.013062
      f-1     :     0.002456
      f+2     :     0.009608
      f-2     :     0.006964
      f+3     :     0.014716
      f-3     :     0.014666
 14 N s       :     2.919436  s :     2.919436
      pz      :     1.171139  p :     3.369938
      px      :     1.164386
      py      :     1.034413
      dz2     :     0.041628  d :     0.321013
      dxz     :     0.008546
      dyz     :     0.067867
      dx2y2   :     0.105938
      dxy     :     0.097034
      f0      :     0.009305  f :     0.112405
      f+1     :     0.004554
      f-1     :     0.019361
      f+2     :     0.017208
      f-2     :     0.004600
      f+3     :     0.028772
      f-3     :     0.028605
 15 H s       :     0.675860  s :     0.675860
      pz      :     0.177303  p :     0.566810
      px      :     0.244708
      py      :     0.144800
      dz2     :     0.034506  d :     0.353012
      dxz     :     0.087011
      dyz     :     0.026807
      dx2y2   :     0.121753
      dxy     :     0.082936
 16 N s       :     2.625316  s :     2.625316
      pz      :     0.943373  p :     2.996874
      px      :     1.007237
      py      :     1.046264
      dz2     :     0.162666  d :     0.629315
      dxz     :     0.197311
      dyz     :     0.127052
      dx2y2   :     0.066484
      dxy     :     0.075802
      f0      :     0.029830  f :     0.226578
      f+1     :     0.079066
      f-1     :     0.043846
      f+2     :     0.019736
      f-2     :     0.015567
      f+3     :     0.018073
      f-3     :     0.020459
 17 O s       :     3.176271  s :     3.176271
      pz      :     1.440628  p :     4.077712
      px      :     1.384763
      py      :     1.252320
      dz2     :     0.047805  d :     0.216429
      dxz     :     0.061514
      dyz     :     0.022246
      dx2y2   :     0.042183
      dxy     :     0.042680
      f0      :     0.005745  f :     0.074033
      f+1     :     0.021494
      f-1     :     0.005019
      f+2     :     0.010054
      f-2     :     0.011745
      f+3     :     0.009056
      f-3     :     0.010920
 18 C s       :     2.446901  s :     2.446901
      pz      :     0.653245  p :     2.219106
      px      :     0.781224
      py      :     0.784637
      dz2     :     0.159482  d :     0.616338
      dxz     :     0.146635
      dyz     :     0.168078
      dx2y2   :     0.082378
      dxy     :     0.059765
      f0      :     0.056727  f :     0.252519
      f+1     :     0.072341
      f-1     :     0.076035
      f+2     :     0.012190
      f-2     :     0.018675
      f+3     :     0.010320
      f-3     :     0.006231
 19 H s       :     0.648579  s :     0.648579
      pz      :     0.069902  p :     0.302474
      px      :     0.141763
      py      :     0.090809
      dz2     :     0.042446  d :     0.222729
      dxz     :     0.051416
      dyz     :     0.007963
      dx2y2   :     0.044174
      dxy     :     0.076730
 20 H s       :     0.634843  s :     0.634843
      pz      :     0.072266  p :     0.313052
      px      :     0.098122
      py      :     0.142664
      dz2     :     0.041991  d :     0.229283
      dxz     :     0.013820
      dyz     :     0.048644
      dx2y2   :     0.058248
      dxy     :     0.066580
 21 H s       :     0.644306  s :     0.644306
      pz      :     0.073171  p :     0.301882
      px      :     0.113160
      py      :     0.115552
      dz2     :     0.051734  d :     0.217082
      dxz     :     0.024529
      dyz     :     0.026095
      dx2y2   :     0.079456
      dxy     :     0.035268
 22 H s       :     0.577200  s :     0.577200
      pz      :     0.131800  p :     0.423835
      px      :     0.136109
      py      :     0.155926
      dz2     :     0.070144  d :     0.308262
      dxz     :     0.051755
      dyz     :     0.046901
      dx2y2   :     0.081682
      dxy     :     0.057780


                      *****************************
                      * MAYER POPULATION ANALYSIS *
                      *****************************

  NA   - Mulliken gross atomic population
  ZA   - Total nuclear charge
  QA   - Mulliken gross atomic charge
  VA   - Mayer's total valence
  BVA  - Mayer's bonded valence
  FA   - Mayer's free valence

  ATOM       NA         ZA         QA         VA         BVA        FA
  0 C      5.1215     6.0000     0.8785     3.3856     3.3856    -0.0000
  1 C      6.7376     6.0000    -0.7376     3.0973     3.0973    -0.0000
  2 H      0.5842     1.0000     0.4158     0.8007     0.8007    -0.0000
  3 C      7.1043     6.0000    -1.1043     2.9229     2.9229    -0.0000
  4 H      0.8351     1.0000     0.1649     1.2610     1.2610     0.0000
  5 C      4.0220     6.0000     1.9780     0.2782     0.2782    -0.0000
  6 C      5.6986     6.0000     0.3014     2.8136     2.8136    -0.0000
  7 C      6.5312     6.0000    -0.5312     2.8018     2.8018     0.0000
  8 H      0.8401     1.0000     0.1599     1.1547     1.1547     0.0000
  9 C      7.0592     6.0000    -1.0592     3.1315     3.1315    -0.0000
 10 H      0.5686     1.0000     0.4314     0.7978     0.7978    -0.0000
 11 S     14.1122    16.0000     1.8878     4.5796     4.5796    -0.0000
 12 O      9.0154     8.0000    -1.0154     1.3321     1.3321     0.0000
 13 O      9.0095     8.0000    -1.0095     1.3281     1.3281     0.0000
 14 N      8.0781     7.0000    -1.0781     2.4833     2.4833     0.0000
 15 H      0.8836     1.0000     0.1164     1.0886     1.0886    -0.0000
 16 N      7.1683     7.0000    -0.1683     2.8731     2.8731     0.0000
 17 O      8.8661     8.0000    -0.8661     1.2078     1.2078     0.0000
 18 C      7.0025     6.0000    -1.0025     3.6228     3.6228    -0.0000
 19 H      0.6487     1.0000     0.3513     0.9769     0.9769    -0.0000
 20 H      0.6147     1.0000     0.3853     0.9285     0.9285    -0.0000
 21 H      0.6960     1.0000     0.3040     1.0522     1.0522    -0.0000
 22 H      0.8024     1.0000     0.1976     0.9065     0.9065     0.0000

  Mayer bond orders larger than 0.100000
B(  0-C ,  1-C ) :   0.9689 B(  0-C ,  9-C ) :   1.0230 B(  0-C , 11-S ) :   0.8560 
B(  0-C , 12-O ) :   0.1043 B(  0-C , 13-O ) :   0.1349 B(  0-C , 14-N ) :   0.2444 
B(  1-C ,  2-H ) :   0.7755 B(  1-C ,  3-C ) :   1.4385 B(  3-C ,  4-H ) :   1.3061 
B(  3-C ,  5-C ) :   0.2964 B(  3-C ,  6-C ) :   0.2955 B(  3-C ,  7-C ) :  -0.4294 
B(  3-C ,  9-C ) :   0.1410 B(  4-H ,  5-C ) :  -0.2108 B(  4-H , 17-O ) :   0.1117 
B(  5-C ,  7-C ) :   0.5407 B(  5-C ,  8-H ) :  -0.2040 B(  5-C ,  9-C ) :  -0.1272 
B(  5-C , 16-N ) :  -0.1149 B(  6-C ,  7-C ) :   0.1193 B(  6-C , 16-N ) :   1.1087 
B(  6-C , 17-O ) :   1.2181 B(  6-C , 18-C ) :  -0.1013 B(  7-C ,  8-H ) :   1.3992 
B(  7-C ,  9-C ) :   1.3925 B(  9-C , 10-H ) :   0.7046 B(  9-C , 14-N ) :  -0.1362 
B( 11-S , 12-O ) :   1.1899 B( 11-S , 13-O ) :   1.1688 B( 11-S , 14-N ) :   1.3512 
B( 11-S , 15-H ) :   0.1008 B( 14-N , 15-H ) :   0.9280 B( 16-N , 18-C ) :   0.9906 
B( 16-N , 22-H ) :   0.9384 B( 18-C , 19-H ) :   0.8882 B( 18-C , 20-H ) :   0.8573 
B( 18-C , 21-H ) :   0.9333 

-------
TIMINGS
-------

Total SCF time: 0 days 0 hours 3 min 35 sec 

Total time                  ....     215.210 sec
Sum of individual times     ....     212.783 sec  ( 98.9%)

Fock matrix formation       ....     201.454 sec  ( 93.6%)
  Split-RI-J                ....      12.811 sec  (  6.4% of F)
  Chain of spheres X        ....     155.408 sec  ( 77.1% of F)
  XC integration            ....      32.234 sec  ( 16.0% of F)
    Basis function eval.    ....       3.539 sec  ( 11.0% of XC)
    Density eval.           ....       8.588 sec  ( 26.6% of XC)
    XC-Functional eval.     ....       0.248 sec  (  0.8% of XC)
    XC-Potential eval.      ....       8.540 sec  ( 26.5% of XC)
Diagonalization             ....       1.609 sec  (  0.7%)
Density matrix formation    ....       0.146 sec  (  0.1%)
Population analysis         ....       0.163 sec  (  0.1%)
Initial guess               ....       2.578 sec  (  1.2%)
Orbital Transformation      ....       0.000 sec  (  0.0%)
Orbital Orthonormalization  ....       0.000 sec  (  0.0%)
DIIS solution               ....       0.810 sec  (  0.4%)
SOSCF solution              ....       1.224 sec  (  0.6%)
Grid generation             ....       4.799 sec  (  2.2%)

Maximum memory used throughout the entire SCF-calculation: 188.7 MB


           ************************************************************
           *        Program running with 8 parallel MPI-processes     *
           *              working on a common directory               *
           ************************************************************

------------------------------------------------------------------------------
                                ORCA  MP2 
------------------------------------------------------------------------------

Freezing NCore=36 chemical core electrons

   <<< Use J-auxbasis for calculation of Separable RI-J derivative contributions (Dim=787) >>> 


-------------
RI-MP2 ENERGY
-------------
Dimension of the basis                    ...  855
Memory devoted to MP2                     ... 5000 MB   
Data format for buffers                   ... DOUBLE
Compression type for matrix containers    ... UNCOMPRESSED
Scaling for aa/bb pairs                   ...   2.500e-01
Scaling for ab pairs                      ...   5.300e-01
Overall scaling of the MP2 energy         ...   1.000e+00
Calculating two index integrals           ... done (    0.045 sec)
Cholesky decomposition of V**-1           ... done (    0.355 sec)

-----------------
RI-TRANSFORMATION (AUX index driven)
-----------------

Dimension of the orbital-basis         ... 855
Dimension of the aux-basis             ... 1939
Transformation of internal/external MOs...   18-  55 to   56- 854
Number Format for Storage              ... Double (8 Byte)
Integral mode                          ... Direct

First Phase: integral generation and transformation of MO indices
  Aux angular momentum 0               ... done (    0.425 sec)
  Aux angular momentum 1               ... done (    0.744 sec)
  Aux angular momentum 2               ... done (    1.085 sec)
  Aux angular momentum 3               ... done (    1.040 sec)
  Aux angular momentum 4               ... done (    0.538 sec)
Closing buffer VIA ( 0.44 GB; CompressionRatio= 1.00)
  Phase 1 completed in     4.179 sec
Second Phase: sorting and transformation of aux index

IA-Transformation
Memory available                       ... 4911 MB 
Max. # MO pairs treated in a batch     ... 5    
# of internal orbitals                 ... 38
# batches for internal orbitals        ... 1
Closing buffer IAV ( 0.44 GB; CompressionRatio= 1.00)
(ia|v) transformation done in     0.725 sec

  Phase 2 completed in     0.853 sec
RI-Integral transformation completed in     5.036 sec
Opening buffers                              ... done

Starting loop over batches of integrals:

Operator 0  - window                       ... ( 18- 55)x( 56-854)
Operator 0  - Memory available             ...  5000 MB
Operator 0  - Memory needed per MO         ...  11.8 MB
Operator 0  - Number of orbitals per batch ... 5
Operator 0  - Number of batches            ... 1

OPERATOR  0   PASS   0:  MOs    18 ...   22 +   23 ...   27 +   28 ...   32 +   33 ...   37
                            +   38 ...   42 +   43 ...   47 +   48 ...   52 +   53 ...   55
  Reading integrals       ... ok
  Internal MO  20
Time spent in pair loops =     0.760 sec
Deleting buffer (Ka|jb)[aa] ...done

-----------------------------------------------
 RI-MP2 CORRELATION ENERGY:     -1.362548267 Eh
-----------------------------------------------


-------
TIMINGS
-------

Total time                :   13.785 sec
Integral trafo            :    5.049 sec ( 36.6%)
I/O of integrals          :    0.029 sec (  0.2%)
K(i,j) Operators          :    0.588 sec (  4.3%)
T(i,j) pair energies      :    0.086 sec (  0.6%)
V-calculation             :    0.045 sec (  0.3%)
V**(-1/2)                 :    0.355 sec (  2.6%)
Gamma(ia|P)               :    0.000 sec (  0.0%)
Gamma-Trafo               :    0.000 sec (  0.0%)
D(virtual)                :    0.000 sec (  0.0%)
D(internal)               :    0.000 sec (  0.0%)
W(virtual)                :    0.000 sec (  0.0%)
W(internal)               :    0.000 sec (  0.0%)
L(virtual)                :    0.000 sec (  0.0%)
L(internal)               :    0.000 sec (  0.0%)
G(D)                      :    0.000 sec (  0.0%)
G(Z)                      :    0.000 sec (  0.0%)
Z-Vector Solution         :    0.000 sec (  0.0%)
3-Index Derivative        :    0.000 sec (  0.0%)
2-Index Derivative        :    0.000 sec (  0.0%)
Separable Gradient (RIJ)  :    0.000 sec (  0.0%)
Separable Gradient (COSX) :    0.000 sec (  0.0%)


---------------------------------------
MP2 TOTAL ENERGY:    -1042.538528614 Eh
---------------------------------------

Maximum memory used throughout the entire MP2-calculation: 213.8 MB


-------------------------------------------------------------------------------
                          DFT DISPERSION CORRECTION                            
                                                                               
                              DFTD3 V3.1  Rev 1                                
                          USING Becke-Johnson damping                          
-------------------------------------------------------------------------------
The DSD-PBEP86 functional is recognized
Active option DFTDOPT                   ...         4   

molecular C6(AA) [au] = 7255.342553 


            DFT-D V3
 parameters
 s6 scaling factor         :     0.4180 
 a1 scaling factor         :     0.0000 
 s8 scaling factor         :     0.0000 
 a2 scaling factor         :     5.6500 
 ad hoc parameters k1-k3   :    16.0000     1.3333    -4.0000 

 Edisp/kcal,au: -10.511215081101  -0.016750685678 
 E6   /kcal   : -10.511215081 
 E8   /kcal   :  -0.000000000 
 % E8         :   0.000000000 

-------------------------   ----------------
Dispersion correction           -0.016750686
-------------------------   ----------------


-------------------------   --------------------
FINAL SINGLE POINT ENERGY     -1042.555279299472
-------------------------   --------------------


                            ***************************************
                            *     ORCA property calculations      *
                            ***************************************


  WARNING: The energy has been calculated at the MP2 level but the densities
           used in the property calculations are still SCF densities
           MP2 response densities have not been calculated 
           use %mp2 Density relaxed end
           or  %mp2 Density unrelaxed end

                                    ---------------------
                                    Active property flags
                                    ---------------------
   (+) Dipole Moment


------------------------------------------------------------------------------
                       ORCA ELECTRIC PROPERTIES CALCULATION
------------------------------------------------------------------------------

Dipole Moment Calculation                       ... on
Quadrupole Moment Calculation                   ... off
Polarizability Calculation                      ... off
GBWName                                         ... A.15.avtz.gbw
Electron density                                ... A.15.avtz.scfp
The origin for moment calculation is the CENTER OF MASS  = (-2.312927,  1.590004 -3.746646)

-------------
DIPOLE MOMENT
-------------
                                X             Y             Z
Electronic contribution:     -3.02834       0.91833      11.86560
Nuclear contribution   :      4.04429      -0.72173     -16.76237
                        -----------------------------------------
Total Dipole Moment    :      1.01595       0.19660      -4.89676
                        -----------------------------------------
Magnitude (a.u.)       :      5.00491
Magnitude (Debye)      :     12.72146



--------------------
Rotational spectrum 
--------------------
 
Rotational constants in cm-1:     0.066292     0.008743     0.008183 
Rotational constants in MHz :  1987.379216   262.110167   245.320641 

 Dipole components along the rotational axes: 
x,y,z [a.u.] :    -4.935746    -0.652751     0.511297 
x,y,z [Debye]:   -12.545669    -1.659160     1.299614 

 

Timings for individual modules:

Sum of individual times         ...      236.920 sec (=   3.949 min)
GTO integral calculation        ...        3.891 sec (=   0.065 min)   1.6 %
SCF iterations                  ...      216.888 sec (=   3.615 min)  91.5 %
MP2 module                      ...       16.142 sec (=   0.269 min)   6.8 %
                             ****ORCA TERMINATED NORMALLY****
TOTAL RUN TIME: 0 days 0 hours 3 minutes 59 seconds 997 msec
