
                                 *****************
                                 * O   R   C   A *
                                 *****************

                                            #,                                       
                                            ###                                      
                                            ####                                     
                                            #####                                    
                                            ######                                   
                                           ########,                                 
                                     ,,################,,,,,                         
                               ,,#################################,,                 
                          ,,##########################################,,             
                       ,#########################################, ''#####,          
                    ,#############################################,,   '####,        
                  ,##################################################,,,,####,       
                ,###########''''           ''''###############################       
              ,#####''   ,,,,##########,,,,          '''####'''          '####       
            ,##' ,,,,###########################,,,                        '##       
           ' ,,###''''                  '''############,,,                           
         ,,##''                                '''############,,,,        ,,,,,,###''
      ,#''                                            '''#######################'''  
     '                                                          ''''####''''         
             ,#######,   #######,   ,#######,      ##                                
            ,#'     '#,  ##    ##  ,#'     '#,    #''#        ######   ,####,        
            ##       ##  ##   ,#'  ##            #'  '#       #        #'  '#        
            ##       ##  #######   ##           ,######,      #####,   #    #        
            '#,     ,#'  ##    ##  '#,     ,#' ,#      #,         ##   #,  ,#        
             '#######'   ##     ##  '#######'  #'      '#     #####' # '####'        



                  #######################################################
                  #                        -***-                        #
                  #          Department of theory and spectroscopy      #
                  #    Directorship and core code : Frank Neese         #
                  #        Max Planck Institute fuer Kohlenforschung    #
                  #                Kaiser Wilhelm Platz 1               #
                  #                 D-45470 Muelheim/Ruhr               #
                  #                      Germany                        #
                  #                                                     #
                  #                  All rights reserved                #
                  #                        -***-                        #
                  #######################################################


                         Program Version 5.0.3 -  RELEASE  -


 With contributions from (in alphabetic order):
   Daniel Aravena         : Magnetic Suceptibility
   Michael Atanasov       : Ab Initio Ligand Field Theory (pilot matlab implementation)
   Alexander A. Auer      : GIAO ZORA, VPT2 properties, NMR spectrum
   Ute Becker             : Parallelization
   Giovanni Bistoni       : ED, misc. LED, open-shell LED, HFLD
   Martin Brehm           : Molecular dynamics
   Dmytro Bykov           : SCF Hessian
   Vijay G. Chilkuri      : MRCI spin determinant printing, contributions to CSF-ICE
   Dipayan Datta          : RHF DLPNO-CCSD density
   Achintya Kumar Dutta   : EOM-CC, STEOM-CC
   Dmitry Ganyushin       : Spin-Orbit,Spin-Spin,Magnetic field MRCI
   Miquel Garcia          : C-PCM and meta-GGA Hessian, CC/C-PCM, Gaussian charge scheme
   Yang Guo               : DLPNO-NEVPT2, F12-NEVPT2, CIM, IAO-localization
   Andreas Hansen         : Spin unrestricted coupled pair/coupled cluster methods
   Benjamin Helmich-Paris : MC-RPA, TRAH-SCF, COSX integrals
   Lee Huntington         : MR-EOM, pCC
   Robert Izsak           : Overlap fitted RIJCOSX, COSX-SCS-MP3, EOM
   Marcus Kettner         : VPT2
   Christian Kollmar      : KDIIS, OOCD, Brueckner-CCSD(T), CCSD density, CASPT2, CASPT2-K
   Simone Kossmann        : Meta GGA functionals, TD-DFT gradient, OOMP2, MP2 Hessian
   Martin Krupicka        : Initial AUTO-CI
   Lucas Lang             : DCDCAS
   Marvin Lechner         : AUTO-CI (C++ implementation), FIC-MRCC
   Dagmar Lenk            : GEPOL surface, SMD
   Dimitrios Liakos       : Extrapolation schemes; Compound Job, initial MDCI parallelization
   Dimitrios Manganas     : Further ROCIS development; embedding schemes
   Dimitrios Pantazis     : SARC Basis sets
   Anastasios Papadopoulos: AUTO-CI, single reference methods and gradients
   Taras Petrenko         : DFT Hessian,TD-DFT gradient, ASA, ECA, R-Raman, ABS, FL, XAS/XES, NRVS
   Peter Pinski           : DLPNO-MP2, DLPNO-MP2 Gradient
   Christoph Reimann      : Effective Core Potentials
   Marius Retegan         : Local ZFS, SOC
   Christoph Riplinger    : Optimizer, TS searches, QM/MM, DLPNO-CCSD(T), (RO)-DLPNO pert. Triples
   Tobias Risthaus        : Range-separated hybrids, TD-DFT gradient, RPA, STAB
   Michael Roemelt        : Original ROCIS implementation
   Masaaki Saitow         : Open-shell DLPNO-CCSD energy and density
   Barbara Sandhoefer     : DKH picture change effects
   Avijit Sen             : IP-ROCIS
   Kantharuban Sivalingam : CASSCF convergence, NEVPT2, FIC-MRCI
   Bernardo de Souza      : ESD, SOC TD-DFT
   Georgi Stoychev        : AutoAux, RI-MP2 NMR, DLPNO-MP2 response
   Willem Van den Heuvel  : Paramagnetic NMR
   Boris Wezisla          : Elementary symmetry handling
   Frank Wennmohs         : Technical directorship


 We gratefully acknowledge several colleagues who have allowed us to
 interface, adapt or use parts of their codes:
   Stefan Grimme, W. Hujo, H. Kruse, P. Pracht,  : VdW corrections, initial TS optimization,
                  C. Bannwarth, S. Ehlert          DFT functionals, gCP, sTDA/sTD-DF
   Ed Valeev, F. Pavosevic, A. Kumar             : LibInt (2-el integral package), F12 methods
   Garnet Chan, S. Sharma, J. Yang, R. Olivares  : DMRG
   Ulf Ekstrom                                   : XCFun DFT Library
   Mihaly Kallay                                 : mrcc  (arbitrary order and MRCC methods)
   Jiri Pittner, Ondrej Demel                    : Mk-CCSD
   Frank Weinhold                                : gennbo (NPA and NBO analysis)
   Christopher J. Cramer and Donald G. Truhlar   : smd solvation model
   Lars Goerigk                                  : TD-DFT with DH, B97 family of functionals
   V. Asgeirsson, H. Jonsson                     : NEB implementation
   FAccTs GmbH                                   : IRC, NEB, NEB-TS, DLPNO-Multilevel, CI-OPT
                                                   MM, QMMM, 2- and 3-layer-ONIOM, Crystal-QMMM,
                                                   LR-CPCM, SF, NACMEs, symmetry and pop. for TD-DFT,
                                                   nearIR, NL-DFT gradient (VV10), updates on ESD,
                                                   ML-optimized integration grids
   S Lehtola, MJT Oliveira, MAL Marques          : LibXC Library
   Liviu Ungur et al                             : ANISO software


 Your calculation uses the libint2 library for the computation of 2-el integrals
 For citations please refer to: http://libint.valeyev.net

 Your ORCA version has been built with support for libXC version: 5.1.0
 For citations please refer to: https://tddft.org/programs/libxc/

 This ORCA versions uses:
   CBLAS   interface :  Fast vector & matrix operations
   LAPACKE interface :  Fast linear algebra routines
   SCALAPACK package :  Parallel linear algebra routines
   Shared memory     :  Shared parallel matrices
   BLAS/LAPACK       :  OpenBLAS 0.3.15  USE64BITINT DYNAMIC_ARCH NO_AFFINITY SkylakeX SINGLE_THREADED
        Core in use  :  SkylakeX
   Copyright (c) 2011-2014, The OpenBLAS Project


Your calculation utilizes the atom-pairwise dispersion correction
with the Becke-Johnson damping scheme (D3BJ)
Cite in your paper:
S.Grimme, S.Ehrlich, L.Goerigk, J Comput Chem, (2011), 32, 1456–1465 
S.Grimme, J.Antony, S.Ehrlich and H.Krieg, J.Chem.Phys., 132, (2010), 154104 
   

================================================================================

----- Orbital basis set information -----
Your calculation utilizes the basis: aug-cc-pVTZ 
    H, B-Ne : Obtained from the ccRepo (grant-hill.group.shef.ac.uk/ccrepo) Feb. 2017
              R. A. Kendall, T. H. Dunning, Jr., R. J. Harrison, J. Chem. Phys. 96, 6796 (1992)
         He : Obtained from the ccRepo (grant-hill.group.shef.ac.uk/ccrepo) Feb. 2017
              D. E. Woon, T. H. Dunning, Jr., J. Chem. Phys. 100, 2975 (1994)
  Li-Be, Na : Obtained from the ccRepo (grant-hill.group.shef.ac.uk/ccrepo) Feb. 2017
              B. P. Prascher, D. E. Woon, K. A. Peterson, T. H. Dunning, Jr., A. K. Wilson, Theor. Chem. Acc. 128, 69 (2011)
         Mg : Obtained from the Peterson Research Group Website (tyr0.chem.wsu.edu/~kipeters) Feb. 2017
              B. P. Prascher, D. E. Woon, K. A. Peterson, T. H. Dunning, Jr., A. K. Wilson, Theor. Chem. Acc. 128, 69 (2011)
      Al-Ar : Obtained from the ccRepo (grant-hill.group.shef.ac.uk/ccrepo) Feb. 2017
              D. E. Woon, T. H. Dunning, Jr., J. Chem. Phys. 98, 1358 (1993)
      Sc-Zn : Obtained from the ccRepo (grant-hill.group.shef.ac.uk/ccrepo) Feb. 2017
              N. B. Balabanov, K. A. Peterson, J. Chem. Phys. 123, 064107 (2005)
              N. B. Balabanov, K. A. Peterson, J. Chem. Phys. 125, 074110 (2006)
      Ga-Kr : Obtained from the ccRepo (grant-hill.group.shef.ac.uk/ccrepo) Feb. 2017
              A. K. Wilson, D. E. Woon, K. A. Peterson, T. H. Dunning, Jr., J. Chem. Phys. 110, 7667 (1999)
     Ag, Au : Obtained from the Peterson Research Group Website (tyr0.chem.wsu.edu/~kipeters) Feb. 2017
              K. A. Peterson, C. Puzzarini, Theor. Chem. Acc. 114, 283 (2005)

----- AuxJ basis set information -----
Your calculation utilizes the auxiliary basis: def2/J
   F. Weigend, Phys. Chem. Chem. Phys. 8, 1057 (2006).

----- AuxC basis set information -----
Your calculation utilizes the auxiliary basis: aug-cc-pVTZ/C 
  H-He, B-F, Al-Ar, Ga-Kr : Obtained from the EMSL Basis Set Exchange (bse.pnl.gov) Feb. 2017
                            F. Weigend, A. Kohn, C. Hattig, J. Chem. Phys. 116, 3175 (2002)
                   Be, Mg : Obtained from the TURBOMOLE 7.0 basis set library
                            C. Haettig, Phys. Chem. Chem. Phys. 7, 59 (2005)
                       Ne : Obtained from the EMSL Basis Set Exchange (bse.pnl.gov) Feb. 2017
                            C. Haettig, Phys. Chem. Chem. Phys. 7, 59 (2005)
                            F. Weigend, A. Kohn, C. Hattig, J. Chem. Phys. 116, 3175 (2002)
                    Sc-Zn : Obtained from the EMSL Basis Set Exchange (bse.pnl.gov) Feb. 2017
                            J. G. Hill, J. A. Platts, J. Chem. Phys. 128, 044104 (2008)

================================================================================
                                        WARNINGS
                       Please study these warnings very carefully!
================================================================================


WARNING: No MP2 level density has been requested!
         To caclulate MP2 level properties use
         %mp2 Density relaxed end
         or
         %mp2 Density unrelaxed end
         Otherwise for double-hybrid DFT only the energy is correct!

WARNING: There are different parametrizations of Gershom Martin's DSD-DFs
         for use with and without D3(BJ)!
         You are using the D3(BJ) parametrized version,
         consistent with the GMTKN55 benchmark (L. Goerigk et al., PCCP 2017, 19, 32184)

WARNING: The frozen-core approximation is turned on by default for 
         the MP2 part of double-hybrid DFT.

INFO   : the flag for use of the SHARK integral package has been found!

================================================================================
                                       INPUT FILE
================================================================================
NAME = A.17.avtz.com
|  1> !PAL8
|  2> !RI-DSD-PBEP86 D3BJ aug-cc-pVTZ aug-cc-pVTZ/C TightSCF
|  3> %maxcore 5000
|  4> 
|  5> * xyz -1 1
|  6> S -1.7466106132  0.2446777669  1.2761818435
|  7> O -0.5941173609  0.79465591  2.0466593639
|  8> O -2.9880757257  1.0492947701  1.2971652643
|  9> N -2.0468044505 -1.2737559402  1.5502368692
| 10> H -1.1682787528 -1.6757518981  1.8829093563
| 11> C -1.1909487466  0.4154980572 -0.4483330659
| 12> H -1.9749037012  0.0182026902 -1.0964214395
| 13> H -0.2657883525 -0.1523184248 -0.5755920846
| 14> H -1.0191902964  1.4748960685 -0.6555851072
| 15> *
| 16> 
| 17> 
| 18> 
| 19>                          ****END OF INPUT****
================================================================================

                       ****************************
                       * Single Point Calculation *
                       ****************************

---------------------------------
CARTESIAN COORDINATES (ANGSTROEM)
---------------------------------
  S     -1.746611    0.244678    1.276182
  O     -0.594117    0.794656    2.046659
  O     -2.988076    1.049295    1.297165
  N     -2.046804   -1.273756    1.550237
  H     -1.168279   -1.675752    1.882909
  C     -1.190949    0.415498   -0.448333
  H     -1.974904    0.018203   -1.096421
  H     -0.265788   -0.152318   -0.575592
  H     -1.019190    1.474896   -0.655585

----------------------------
CARTESIAN COORDINATES (A.U.)
----------------------------
  NO LB      ZA    FRAG     MASS         X           Y           Z
   0 S    16.0000    0    32.060   -3.300616    0.462374    2.411634
   1 O     8.0000    0    15.999   -1.122719    1.501682    3.867626
   2 O     8.0000    0    15.999   -5.646645    1.982880    2.451287
   3 N     7.0000    0    14.007   -3.867900   -2.407050    2.929523
   4 H     1.0000    0     1.008   -2.207727   -3.166712    3.558183
   5 C     6.0000    0    12.011   -2.250567    0.785178   -0.847227
   6 H     1.0000    0     1.008   -3.732027    0.034398   -2.071936
   7 H     1.0000    0     1.008   -0.502267   -0.287840   -1.087711
   8 H     1.0000    0     1.008   -1.925991    2.787150   -1.238876

--------------------------------
INTERNAL COORDINATES (ANGSTROEM)
--------------------------------
 S      0   0   0     0.000000000000     0.00000000     0.00000000
 O      1   0   0     1.491426251588     0.00000000     0.00000000
 O      1   2   0     1.479555491133   116.13760222     0.00000000
 N      1   2   3     1.571898031019   114.43902278   228.18977137
 H      4   1   2     1.021801906125   105.81923623   336.01547998
 C      1   2   3     1.819860256809   102.64920077   111.08036205
 H      6   1   2     1.091992453947   108.00172020   179.11402762
 H      6   1   2     1.092946553992   108.66470819    59.26316111
 H      6   1   2     1.093059248250   108.57984808   299.16038177

---------------------------
INTERNAL COORDINATES (A.U.)
---------------------------
 S      0   0   0     0.000000000000     0.00000000     0.00000000
 O      1   0   0     2.818387164442     0.00000000     0.00000000
 O      1   2   0     2.795954678181   116.13760222     0.00000000
 N      1   2   3     2.970456789076   114.43902278   228.18977137
 H      4   1   2     1.930925765695   105.81923623   336.01547998
 C      1   2   3     3.439037487377   102.64920077   111.08036205
 H      6   1   2     2.063566678268   108.00172020   179.11402762
 H      6   1   2     2.065369666058   108.66470819    59.26316111
 H      6   1   2     2.065582627342   108.57984808   299.16038177

---------------------
BASIS SET INFORMATION
---------------------
There are 5 groups of distinct atoms

 Group   1 Type S   : 42s17p3d2f contracted to 6s5p3d2f pattern {131313111/77111/111/11}
 Group   2 Type O   : 19s6p3d2f contracted to 5s4p3d2f pattern {88111/3111/111/11}
 Group   3 Type N   : 19s6p3d2f contracted to 5s4p3d2f pattern {88111/3111/111/11}
 Group   4 Type H   : 6s3p2d contracted to 4s3p2d pattern {3111/111/11}
 Group   5 Type C   : 19s6p3d2f contracted to 5s4p3d2f pattern {88111/3111/111/11}

Atom   0S    basis set group =>   1
Atom   1O    basis set group =>   2
Atom   2O    basis set group =>   2
Atom   3N    basis set group =>   3
Atom   4H    basis set group =>   4
Atom   5C    basis set group =>   5
Atom   6H    basis set group =>   4
Atom   7H    basis set group =>   4
Atom   8H    basis set group =>   4
---------------------------------
AUXILIARY/J BASIS SET INFORMATION
---------------------------------
There are 5 groups of distinct atoms

 Group   1 Type S   : 14s5p5d2f1g contracted to 8s4p3d1f1g pattern {71111111/2111/311/2/1}
 Group   2 Type O   : 12s5p4d2f1g contracted to 6s4p3d1f1g pattern {711111/2111/211/2/1}
 Group   3 Type N   : 12s5p4d2f1g contracted to 6s4p3d1f1g pattern {711111/2111/211/2/1}
 Group   4 Type H   : 5s2p1d contracted to 3s1p1d pattern {311/2/1}
 Group   5 Type C   : 12s5p4d2f1g contracted to 6s4p3d1f1g pattern {711111/2111/211/2/1}

Atom   0S    basis set group =>   1
Atom   1O    basis set group =>   2
Atom   2O    basis set group =>   2
Atom   3N    basis set group =>   3
Atom   4H    basis set group =>   4
Atom   5C    basis set group =>   5
Atom   6H    basis set group =>   4
Atom   7H    basis set group =>   4
Atom   8H    basis set group =>   4
---------------------------------
AUXILIARY/C BASIS SET INFORMATION
---------------------------------
There are 5 groups of distinct atoms

 Group   1 Type S   : 11s9p8d6f3g contracted to 11s9p8d6f3g pattern {11111111111/111111111/11111111/111111/111}
 Group   2 Type O   : 9s7p6d4f2g contracted to 9s7p6d4f2g pattern {111111111/1111111/111111/1111/11}
 Group   3 Type N   : 9s7p6d4f2g contracted to 9s7p6d4f2g pattern {111111111/1111111/111111/1111/11}
 Group   4 Type H   : 5s4p3d2f contracted to 5s4p3d2f pattern {11111/1111/111/11}
 Group   5 Type C   : 9s7p6d4f2g contracted to 9s7p6d4f2g pattern {111111111/1111111/111111/1111/11}

Atom   0S    basis set group =>   1
Atom   1O    basis set group =>   2
Atom   2O    basis set group =>   2
Atom   3N    basis set group =>   3
Atom   4H    basis set group =>   4
Atom   5C    basis set group =>   5
Atom   6H    basis set group =>   4
Atom   7H    basis set group =>   4
Atom   8H    basis set group =>   4


           ************************************************************
           *        Program running with 8 parallel MPI-processes     *
           *              working on a common directory               *
           ************************************************************
------------------------------------------------------------------------------
                           ORCA GTO INTEGRAL CALCULATION
                           -- RI-GTO INTEGRALS CHOSEN --
------------------------------------------------------------------------------
------------------------------------------------------------------------------
                   ___                                                        
                  /   \      - P O W E R E D   B Y -                         
                 /     \                                                     
                 |  |  |   _    _      __       _____    __    __             
                 |  |  |  | |  | |    /  \     |  _  \  |  |  /  |          
                  \  \/   | |  | |   /    \    | | | |  |  | /  /          
                 / \  \   | |__| |  /  /\  \   | |_| |  |  |/  /          
                |  |  |   |  __  | /  /__\  \  |    /   |      \           
                |  |  |   | |  | | |   __   |  |    \   |  |\   \          
                \     /   | |  | | |  |  |  |  | |\  \  |  | \   \       
                 \___/    |_|  |_| |__|  |__|  |_| \__\ |__|  \__/        
                                                                              
                      - O R C A' S   B I G   F R I E N D -                    
                                      &                                       
                       - I N T E G R A L  F E E D E R -                       
                                                                              
 v1 FN, 2020, v2 2021                                                         
------------------------------------------------------------------------------


Reading SHARK input file A.17.avtz.SHARKINP.tmp ... ok
----------------------
SHARK INTEGRAL PACKAGE
----------------------

Number of atoms                             ...      9
Number of basis functions                   ...    375
Number of shells                            ...    147
Maximum angular momentum                    ...      3
Integral batch strategy                     ... SHARK/LIBINT Hybrid
RI-J (if used) integral strategy            ... SPLIT-RIJ (Revised 2003 algorithm where possible)
Printlevel                                  ...      1
Contraction scheme used                     ... PARTIAL GENERAL contraction
Coulomb Range Separation                    ... NOT USED
Exchange Range Separation                   ... NOT USED
Finite Nucleus Model                        ... NOT USED
Auxiliary Coulomb fitting basis             ... AVAILABLE
   # of basis functions in Aux-J            ...    291
   # of shells in Aux-J                     ...     97
   Maximum angular momentum in Aux-J        ...      4
Auxiliary J/K fitting basis                 ... NOT available
Auxiliary Correlation fitting basis         ... AVAILABLE
   # of basis functions in Aux-C            ...    755
   # of shells in Aux-C                     ...    205
   Maximum angular momentum in Aux-C        ...      4
Auxiliary 'external' fitting basis          ... NOT available
Integral threshold                          ...     2.500000e-11
Primitive cut-off                           ...     2.500000e-12
Primitive pair pre-selection threshold      ...     2.500000e-12

Calculating pre-screening integrals         ... done (  0.0 sec) Dimension = 147
Calculating pre-screening integrals (ORCA)  ... done (  0.1 sec) Dimension = 108
Organizing shell pair data                  ... done (  0.1 sec)
Shell pair information
Total number of shell pairs                 ...     10878
Shell pairs after pre-screening             ...      9594
Total number of primitive shell pairs       ...     13390
Primitive shell pairs kept                  ...     11159
          la=0 lb=0:   2164 shell pairs
          la=1 lb=0:   2552 shell pairs
          la=1 lb=1:    729 shell pairs
          la=2 lb=0:   1615 shell pairs
          la=2 lb=1:    866 shell pairs
          la=2 lb=2:    276 shell pairs
          la=3 lb=0:    727 shell pairs
          la=3 lb=1:    380 shell pairs
          la=3 lb=2:    230 shell pairs
          la=3 lb=3:     55 shell pairs

Calculating one electron integrals          ... done (  0.0 sec)
Calculating RI/J V-Matrix + Cholesky decomp.... done (  0.0 sec)
Calculating RI/C V-Matrix + Cholesky decomp.... done (  0.0 sec)
Calculating Nuclear repulsion               ... done (  0.0 sec) ENN=    265.411864208205 Eh

SHARK setup successfully completed in   0.5 seconds

Maximum memory used throughout the entire GTOINT-calculation: 55.3 MB


           ************************************************************
           *        Program running with 8 parallel MPI-processes     *
           *              working on a common directory               *
           ************************************************************
-------------------------------------------------------------------------------
                                 ORCA SCF
-------------------------------------------------------------------------------

------------
SCF SETTINGS
------------
Hamiltonian:
 Density Functional     Method          .... DFT(GTOs)
 Exchange Functional    Exchange        .... PBE
   PBE kappa parameter   XKappa         ....  0.804000
   PBE mue parameter    XMuePBE         ....  0.219520
 Correlation Functional Correlation     .... P86
 LDA part of GGA corr.  LDAOpt          .... VWN-5
 Gradients option       PostSCFGGA      .... off
 Hybrid DFT is turned on
   Fraction HF Exchange ScalHFX         ....  0.700000
   Scaling of DF-GGA-X  ScalDFX         ....  0.300000
   Scaling of DF-GGA-C  ScalDFC         ....  0.430000
   Scaling of DF-LDA-C  ScalLDAC        ....  0.430000
   Perturbative correction              ....  1.000000
   Density functional embedding theory  .... OFF
   NL short-range parameter             .... 14.200000
 RI-approximation to the Coulomb term is turned on
   Number of AuxJ basis functions       .... 291
   RIJ-COSX (HFX calculated with COS-X)).... on


General Settings:
 Integral files         IntName         .... A.17.avtz
 Hartree-Fock type      HFTyp           .... RHF
 Total Charge           Charge          ....   -1
 Multiplicity           Mult            ....    1
 Number of Electrons    NEL             ....   50
 Basis Dimension        Dim             ....  326
 Nuclear Repulsion      ENuc            ....    265.4118642082 Eh

Convergence Acceleration:
 DIIS                   CNVDIIS         .... on
   Start iteration      DIISMaxIt       ....    12
   Startup error        DIISStart       ....  0.200000
   # of expansion vecs  DIISMaxEq       ....     5
   Bias factor          DIISBfac        ....   1.050
   Max. coefficient     DIISMaxC        ....  10.000
 Trust-Rad. Augm. Hess. CNVTRAH         .... auto
   Auto Start mean grad. ratio tolernc. ....  1.125000
   Auto Start start iteration           ....    20
   Auto Start num. interpolation iter.  ....    10
   Max. Number of Micro iterations      ....    16
   Max. Number of Macro iterations      .... Maxiter - #DIIS iter
   Number of Davidson start vectors     ....     2
   Converg. threshold I  (grad. norm)   ....   1.000e-05
   Converg. threshold II (energy diff.) ....   1.000e-08
   Grad. Scal. Fac. for Micro threshold ....   0.100
   Minimum threshold for Micro iter.    ....   0.010
   NR start threshold (gradient norm)   ....   0.001
   Initial trust radius                 ....   0.400
   Minimum AH scaling param. (alpha)    ....   1.000
   Maximum AH scaling param. (alpha)    .... 1000.000
   Orbital update algorithm             .... Taylor
   White noise on init. David. guess    .... on
   Maximum white noise                  ....   0.010
   Quad. conv. algorithm                .... NR
 SOSCF                  CNVSOSCF        .... on
   Start iteration      SOSCFMaxIt      ....   150
   Startup grad/error   SOSCFStart      ....  0.003300
 Level Shifting         CNVShift        .... on
   Level shift para.    LevelShift      ....    0.2500
   Turn off err/grad.   ShiftErr        ....    0.0010
 Zerner damping         CNVZerner       .... off
 Static damping         CNVDamp         .... on
   Fraction old density DampFac         ....    0.7000
   Max. Damping (<1)    DampMax         ....    0.9800
   Min. Damping (>=0)   DampMin         ....    0.0000
   Turn off err/grad.   DampErr         ....    0.1000
 Fernandez-Rico         CNVRico         .... off

SCF Procedure:
 Maximum # iterations   MaxIter         ....   125
 SCF integral mode      SCFMode         .... Direct
   Integral package                     .... SHARK and LIBINT hybrid scheme
 Reset frequency        DirectResetFreq ....    20
 Integral Threshold     Thresh          ....  2.500e-11 Eh
 Primitive CutOff       TCut            ....  2.500e-12 Eh

Convergence Tolerance:
 Convergence Check Mode ConvCheckMode   .... Total+1el-Energy
 Convergence forced     ConvForced      .... 0
 Energy Change          TolE            ....  1.000e-08 Eh
 1-El. energy change                    ....  1.000e-05 Eh
 Orbital Gradient       TolG            ....  1.000e-05
 Orbital Rotation angle TolX            ....  1.000e-05
 DIIS Error             TolErr          ....  5.000e-07


Diagonalization of the overlap matrix:
Smallest eigenvalue                        ... 3.116e-05
Time for diagonalization                   ...    0.021 sec
Threshold for overlap eigenvalues          ... 1.000e-08
Number of eigenvalues below threshold      ... 0
Time for construction of square roots      ...    0.009 sec
Total time needed                          ...    0.031 sec

Time for model grid setup =    0.049 sec

------------------------------
INITIAL GUESS: MODEL POTENTIAL
------------------------------
Loading Hartree-Fock densities                     ... done
Calculating cut-offs                               ... done
Initializing the effective Hamiltonian             ... done
Setting up the integral package (SHARK)            ... done
Starting the Coulomb interaction                   ... done (   0.0 sec)
Reading the grid                                   ... done
Mapping shells                                     ... done
Starting the XC term evaluation                    ... done (   0.1 sec)
  promolecular density results
     # of electrons  =     48.998635859
     EX              =    -54.074022279
     EC              =      0.005984032
     EX+EC           =    -54.068038247
Transforming the Hamiltonian                       ... done (   0.0 sec)
Diagonalizing the Hamiltonian                      ... done (   0.0 sec)
Back transforming the eigenvectors                 ... done (   0.0 sec)
Now organizing SCF variables                       ... done
                      ------------------
                      INITIAL GUESS DONE (   0.2 sec)
                      ------------------
-------------------
DFT GRID GENERATION
-------------------

General Integration Accuracy     IntAcc      ... 4.388
Radial Grid Type                 RadialGrid  ... OptM3 with GC (2021)
Angular Grid (max. ang.)         AngularGrid ... 4 (Lebedev-302)
Angular grid pruning method      GridPruning ... 4 (adaptive)
Weight generation scheme         WeightScheme... Becke
Basis function cutoff            BFCut       ... 1.0000e-11
Integration weight cutoff        WCut        ... 1.0000e-14
Angular grids for H and He will be reduced by one unit
Partially contracted basis set               ... off
Rotationally invariant grid construction     ... off

Total number of grid points                  ...    47024
Total number of batches                      ...      737
Average number of points per batch           ...       63
Average number of grid points per atom       ...     5225
Time for grid setup =    0.203 sec

--------------------
COSX GRID GENERATION
--------------------

GRIDX 1
-------
General Integration Accuracy     IntAcc      ... 3.816
Radial Grid Type                 RadialGrid  ... OptM3 with GC (2021)
Angular Grid (max. ang.)         AngularGrid ... 1 (Lebedev-50)
Angular grid pruning method      GridPruning ... 4 (adaptive)
Weight generation scheme         WeightScheme... Becke
Basis function cutoff            BFCut       ... 1.0000e-11
Integration weight cutoff        WCut        ... 1.0000e-14
Angular grids for H and He will be reduced by one unit
Partially contracted basis set               ... on
Rotationally invariant grid construction     ... off

Total number of grid points                  ...     5831
Total number of batches                      ...       96
Average number of points per batch           ...       60
Average number of grid points per atom       ...      648
UseSFitting                                  ... on

GRIDX 2
-------
General Integration Accuracy     IntAcc      ... 4.020
Radial Grid Type                 RadialGrid  ... OptM3 with GC (2021)
Angular Grid (max. ang.)         AngularGrid ... 2 (Lebedev-110)
Angular grid pruning method      GridPruning ... 4 (adaptive)
Weight generation scheme         WeightScheme... Becke
Basis function cutoff            BFCut       ... 1.0000e-11
Integration weight cutoff        WCut        ... 1.0000e-14
Angular grids for H and He will be reduced by one unit
Partially contracted basis set               ... on
Rotationally invariant grid construction     ... off

Total number of grid points                  ...    14498
Total number of batches                      ...      231
Average number of points per batch           ...       62
Average number of grid points per atom       ...     1611
UseSFitting                                  ... on

GRIDX 3
-------
General Integration Accuracy     IntAcc      ... 4.338
Radial Grid Type                 RadialGrid  ... OptM3 with GC (2021)
Angular Grid (max. ang.)         AngularGrid ... 3 (Lebedev-194)
Angular grid pruning method      GridPruning ... 4 (adaptive)
Weight generation scheme         WeightScheme... Becke
Basis function cutoff            BFCut       ... 1.0000e-11
Integration weight cutoff        WCut        ... 1.0000e-14
Angular grids for H and He will be reduced by one unit
Partially contracted basis set               ... on
Rotationally invariant grid construction     ... off

Total number of grid points                  ...    32949
Total number of batches                      ...      519
Average number of points per batch           ...       63
Average number of grid points per atom       ...     3661
UseSFitting                                  ... on

Time for X-Grid setup             =    0.284 sec

 re-compute Schwartz prescreening matrix in partically contracted basis (1) ...done (   0.073 sec)
--------------
SCF ITERATIONS
--------------
ITER       Energy         Delta-E        Max-DP      RMS-DP      [F,P]     Damp
               ***  Starting incremental Fock matrix formation  ***
  0   -642.4380142178   0.000000000000 0.05210958  0.00092378  0.3387813 0.7000
  1   -642.5827378469  -0.144723629119 0.03315607  0.00066393  0.1855174 0.7000
                               ***Turning on DIIS***
  2   -642.6507439044  -0.068006057477 0.06964782  0.00128350  0.0843305 0.0000
  3   -642.7590478365  -0.108303932114 0.02494872  0.00043576  0.0826286 0.0000
  4   -642.7776475194  -0.018599682955 0.00587485  0.00011385  0.0113152 0.0000
  5   -642.7781434474  -0.000495928025 0.00198515  0.00004226  0.0038974 0.0000
                      *** Initiating the SOSCF procedure ***
                           *** Shutting down DIIS ***
                      *** Re-Reading the Fockian *** 
                      *** Removing any level shift *** 
ITER      Energy       Delta-E        Grad      Rot      Max-DP    RMS-DP
  6   -642.77822645  -0.0000830006  0.000386  0.000386  0.001009  0.000020
               *** Restarting incremental Fock matrix formation ***
  7   -642.77825154  -0.0000250906  0.000132  0.000295  0.011304  0.000109
  8   -642.77825426  -0.0000027259  0.000130  0.000188  0.004121  0.000043
  9   -642.77825569  -0.0000014255  0.000018  0.000028  0.002215  0.000023
 10   -642.77825575  -0.0000000590  0.000007  0.000009  0.000489  0.000005
 11   -642.77825576  -0.0000000063  0.000003  0.000004  0.000230  0.000002
                  ***Gradient check signals convergence***
              ***Rediagonalizing the Fockian in SOSCF/NRSCF***

               *****************************************************
               *                     SUCCESS                       *
               *           SCF CONVERGED AFTER  12 CYCLES          *
               *****************************************************

Old exchange energy                            =    -38.516109477 Eh
New exchange energy                            =    -38.516277997 Eh
Exchange energy change after final integration =     -0.000168520 Eh
Total energy after final integration           =   -642.778424279 Eh
Final COS-X integration done in                =     2.817 sec

----------------
TOTAL SCF ENERGY
----------------

Total Energy       :         -642.77842428 Eh          -17490.89014 eV

Components:
Nuclear Repulsion  :          265.41186421 Eh            7222.22400 eV
Electronic Energy  :         -908.19028849 Eh          -24713.11414 eV
One Electron Energy:        -1422.19796665 Eh          -38699.97414 eV
Two Electron Energy:          514.00767817 Eh           13986.86000 eV
Max COSX asymmetry :            0.00001733 Eh               0.00047 eV

Virial components:
Potential Energy   :        -1283.94424392 Eh          -34937.89909 eV
Kinetic Energy     :          641.16581964 Eh           17447.00894 eV
Virial Ratio       :            2.00251511


DFT components:
N(Alpha)           :       25.000051755539 electrons
N(Beta)            :       25.000051755539 electrons
N(Total)           :       50.000103511077 electrons
E(X)               :      -16.449544623508 Eh       
E(C)               :       -0.857051930320 Eh       
E(XC)              :      -17.306596553829 Eh       
DFET-embed. en.    :        0.000000000000 Eh       

---------------
SCF CONVERGENCE
---------------

  Last Energy change         ...   -3.4124e-09  Tolerance :   1.0000e-08
  Last MAX-Density change    ...    2.4425e-15  Tolerance :   1.0000e-07
  Last RMS-Density change    ...    2.0418e-17  Tolerance :   5.0000e-09
  Last Orbital Gradient      ...    7.1742e-07  Tolerance :   1.0000e-05
  Last Orbital Rotation      ...    1.1077e-06  Tolerance :   1.0000e-05

             **** THE GBW FILE WAS UPDATED (A.17.avtz.gbw) ****
             **** DENSITY A.17.avtz.scfp WAS UPDATED ****
             **** ENERGY FILE WAS UPDATED (A.17.avtz.en.tmp) ****
             **** THE GBW FILE WAS UPDATED (A.17.avtz.gbw) ****
             **** DENSITY A.17.avtz.scfp WAS UPDATED ****
----------------
ORBITAL ENERGIES
----------------

  NO   OCC          E(Eh)            E(eV) 
   0   2.0000     -90.818505     -2471.2972 
   1   2.0000     -19.802119      -538.8431 
   2   2.0000     -19.800793      -538.8070 
   3   2.0000     -14.862332      -404.4246 
   4   2.0000     -10.687070      -290.8100 
   5   2.0000      -8.560760      -232.9501 
   6   2.0000      -6.346511      -172.6973 
   7   2.0000      -6.345460      -172.6687 
   8   2.0000      -6.344422      -172.6405 
   9   2.0000      -1.107623       -30.1400 
  10   2.0000      -0.992523       -27.0079 
  11   2.0000      -0.853732       -23.2312 
  12   2.0000      -0.734798       -19.9949 
  13   2.0000      -0.531403       -14.4602 
  14   2.0000      -0.419313       -11.4101 
  15   2.0000      -0.400353       -10.8942 
  16   2.0000      -0.390670       -10.6307 
  17   2.0000      -0.359585        -9.7848 
  18   2.0000      -0.345107        -9.3908 
  19   2.0000      -0.269670        -7.3381 
  20   2.0000      -0.234000        -6.3675 
  21   2.0000      -0.214185        -5.8283 
  22   2.0000      -0.196142        -5.3373 
  23   2.0000      -0.170128        -4.6294 
  24   2.0000      -0.141258        -3.8438 
  25   0.0000       0.120024         3.2660 
  26   0.0000       0.132009         3.5921 
  27   0.0000       0.136460         3.7133 
  28   0.0000       0.144917         3.9434 
  29   0.0000       0.188008         5.1159 
  30   0.0000       0.200706         5.4615 
  31   0.0000       0.206227         5.6117 
  32   0.0000       0.219099         5.9620 
  33   0.0000       0.225333         6.1316 
  34   0.0000       0.235796         6.4163 
  35   0.0000       0.240155         6.5349 
  36   0.0000       0.257585         7.0092 
  37   0.0000       0.270867         7.3707 
  38   0.0000       0.273932         7.4541 
  39   0.0000       0.288354         7.8465 
  40   0.0000       0.311107         8.4656 
  41   0.0000       0.323465         8.8019 
  42   0.0000       0.329291         8.9605 
  43   0.0000       0.336766         9.1639 
  44   0.0000       0.337417         9.1816 
  45   0.0000       0.353091         9.6081 
  46   0.0000       0.376892        10.2558 
  47   0.0000       0.383873        10.4457 
  48   0.0000       0.389422        10.5967 
  49   0.0000       0.390900        10.6369 
  50   0.0000       0.397032        10.8038 
  51   0.0000       0.416182        11.3249 
  52   0.0000       0.429019        11.6742 
  53   0.0000       0.432118        11.7585 
  54   0.0000       0.447703        12.1826 
  55   0.0000       0.451222        12.2784 
  56   0.0000       0.463757        12.6195 
  57   0.0000       0.468516        12.7490 
  58   0.0000       0.479506        13.0480 
  59   0.0000       0.483292        13.1510 
  60   0.0000       0.489486        13.3196 
  61   0.0000       0.493205        13.4208 
  62   0.0000       0.502332        13.6691 
  63   0.0000       0.514494        14.0001 
  64   0.0000       0.522368        14.2143 
  65   0.0000       0.524823        14.2812 
  66   0.0000       0.545022        14.8308 
  67   0.0000       0.547235        14.8910 
  68   0.0000       0.565848        15.3975 
  69   0.0000       0.578567        15.7436 
  70   0.0000       0.590764        16.0755 
  71   0.0000       0.599136        16.3033 
  72   0.0000       0.614107        16.7107 
  73   0.0000       0.619461        16.8564 
  74   0.0000       0.633109        17.2278 
  75   0.0000       0.646745        17.5988 
  76   0.0000       0.656734        17.8706 
  77   0.0000       0.661104        17.9896 
  78   0.0000       0.697882        18.9903 
  79   0.0000       0.712245        19.3812 
  80   0.0000       0.742172        20.1955 
  81   0.0000       0.756307        20.5802 
  82   0.0000       0.769908        20.9503 
  83   0.0000       0.789546        21.4846 
  84   0.0000       0.800955        21.7951 
  85   0.0000       0.819114        22.2892 
  86   0.0000       0.841673        22.9031 
  87   0.0000       0.861769        23.4499 
  88   0.0000       0.870381        23.6843 
  89   0.0000       0.881844        23.9962 
  90   0.0000       0.899289        24.4709 
  91   0.0000       0.911544        24.8044 
  92   0.0000       0.931781        25.3550 
  93   0.0000       0.939844        25.5744 
  94   0.0000       0.942357        25.6428 
  95   0.0000       0.963118        26.2078 
  96   0.0000       0.971182        26.4272 
  97   0.0000       0.975765        26.5519 
  98   0.0000       0.983851        26.7720 
  99   0.0000       0.990687        26.9580 
 100   0.0000       1.007077        27.4040 
 101   0.0000       1.014787        27.6137 
 102   0.0000       1.019413        27.7396 
 103   0.0000       1.025159        27.8960 
 104   0.0000       1.039614        28.2893 
 105   0.0000       1.044259        28.4157 
 106   0.0000       1.074468        29.2378 
 107   0.0000       1.084511        29.5110 
 108   0.0000       1.097042        29.8520 
 109   0.0000       1.104460        30.0539 
 110   0.0000       1.117341        30.4044 
 111   0.0000       1.129194        30.7269 
 112   0.0000       1.141377        31.0584 
 113   0.0000       1.166239        31.7350 
 114   0.0000       1.186545        32.2875 
 115   0.0000       1.188515        32.3411 
 116   0.0000       1.199141        32.6303 
 117   0.0000       1.217267        33.1235 
 118   0.0000       1.231093        33.4997 
 119   0.0000       1.233135        33.5553 
 120   0.0000       1.240015        33.7425 
 121   0.0000       1.241019        33.7698 
 122   0.0000       1.269709        34.5505 
 123   0.0000       1.272426        34.6245 
 124   0.0000       1.281504        34.8715 
 125   0.0000       1.300225        35.3809 
 126   0.0000       1.331054        36.2198 
 127   0.0000       1.351023        36.7632 
 128   0.0000       1.359049        36.9816 
 129   0.0000       1.375523        37.4299 
 130   0.0000       1.385810        37.7098 
 131   0.0000       1.393111        37.9085 
 132   0.0000       1.401486        38.1364 
 133   0.0000       1.436700        39.0946 
 134   0.0000       1.440934        39.2098 
 135   0.0000       1.458264        39.6814 
 136   0.0000       1.468996        39.9734 
 137   0.0000       1.501980        40.8709 
 138   0.0000       1.511354        41.1260 
 139   0.0000       1.527317        41.5604 
 140   0.0000       1.546102        42.0716 
 141   0.0000       1.552675        42.2504 
 142   0.0000       1.577418        42.9237 
 143   0.0000       1.589344        43.2482 
 144   0.0000       1.597111        43.4596 
 145   0.0000       1.635671        44.5089 
 146   0.0000       1.661008        45.1983 
 147   0.0000       1.689250        45.9668 
 148   0.0000       1.700714        46.2788 
 149   0.0000       1.711338        46.5679 
 150   0.0000       1.723243        46.8918 
 151   0.0000       1.736186        47.2440 
 152   0.0000       1.753736        47.7216 
 153   0.0000       1.768266        48.1170 
 154   0.0000       1.798227        48.9322 
 155   0.0000       1.805143        49.1204 
 156   0.0000       1.824975        49.6601 
 157   0.0000       1.829742        49.7898 
 158   0.0000       1.854742        50.4701 
 159   0.0000       1.880092        51.1599 
 160   0.0000       1.904281        51.8181 
 161   0.0000       1.946763        52.9741 
 162   0.0000       1.972035        53.6618 
 163   0.0000       1.994926        54.2847 
 164   0.0000       2.025989        55.1300 
 165   0.0000       2.037416        55.4409 
 166   0.0000       2.054490        55.9055 
 167   0.0000       2.103476        57.2385 
 168   0.0000       2.112901        57.4950 
 169   0.0000       2.128939        57.9314 
 170   0.0000       2.158096        58.7248 
 171   0.0000       2.202876        59.9433 
 172   0.0000       2.239121        60.9296 
 173   0.0000       2.251335        61.2620 
 174   0.0000       2.263902        61.6039 
 175   0.0000       2.271702        61.8162 
 176   0.0000       2.283996        62.1507 
 177   0.0000       2.301025        62.6141 
 178   0.0000       2.333137        63.4879 
 179   0.0000       2.357218        64.1432 
 180   0.0000       2.365004        64.3550 
 181   0.0000       2.377507        64.6953 
 182   0.0000       2.413581        65.6769 
 183   0.0000       2.424701        65.9795 
 184   0.0000       2.439807        66.3905 
 185   0.0000       2.442908        66.4749 
 186   0.0000       2.464260        67.0559 
 187   0.0000       2.480309        67.4926 
 188   0.0000       2.491366        67.7935 
 189   0.0000       2.514622        68.4263 
 190   0.0000       2.521613        68.6166 
 191   0.0000       2.532342        68.9085 
 192   0.0000       2.549279        69.3694 
 193   0.0000       2.572608        70.0042 
 194   0.0000       2.585798        70.3631 
 195   0.0000       2.610736        71.0417 
 196   0.0000       2.629689        71.5575 
 197   0.0000       2.658364        72.3378 
 198   0.0000       2.670817        72.6766 
 199   0.0000       2.713283        73.8322 
 200   0.0000       2.755786        74.9887 
 201   0.0000       2.765065        75.2412 
 202   0.0000       2.788540        75.8800 
 203   0.0000       2.797156        76.1145 
 204   0.0000       2.851417        77.5910 
 205   0.0000       2.871435        78.1357 
 206   0.0000       2.900324        78.9218 
 207   0.0000       2.904368        79.0319 
 208   0.0000       2.920815        79.4794 
 209   0.0000       2.953279        80.3628 
 210   0.0000       2.995827        81.5206 
 211   0.0000       3.017081        82.0989 
 212   0.0000       3.067310        83.4657 
 213   0.0000       3.127249        85.0968 
 214   0.0000       3.144841        85.5755 
 215   0.0000       3.194011        86.9135 
 216   0.0000       3.258410        88.6658 
 217   0.0000       3.356288        91.3292 
 218   0.0000       3.381235        92.0081 
 219   0.0000       3.399010        92.4918 
 220   0.0000       3.455235        94.0217 
 221   0.0000       3.475621        94.5764 
 222   0.0000       3.488821        94.9356 
 223   0.0000       3.522367        95.8485 
 224   0.0000       3.556556        96.7788 
 225   0.0000       3.615919        98.3942 
 226   0.0000       3.655952        99.4835 
 227   0.0000       3.674525        99.9889 
 228   0.0000       3.680229       100.1441 
 229   0.0000       3.684102       100.2495 
 230   0.0000       3.762439       102.3812 
 231   0.0000       3.778455       102.8170 
 232   0.0000       3.815539       103.8261 
 233   0.0000       3.831512       104.2607 
 234   0.0000       3.931464       106.9806 
 235   0.0000       3.939094       107.1882 
 236   0.0000       3.966414       107.9316 
 237   0.0000       3.990920       108.5985 
 238   0.0000       4.013156       109.2035 
 239   0.0000       4.025411       109.5370 
 240   0.0000       4.116519       112.0162 
 241   0.0000       4.179605       113.7328 
 242   0.0000       4.180289       113.7514 
 243   0.0000       4.183898       113.8497 
 244   0.0000       4.270799       116.2144 
 245   0.0000       4.315231       117.4234 
 246   0.0000       4.328919       117.7959 
 247   0.0000       4.345585       118.2494 
 248   0.0000       4.389465       119.4434 
 249   0.0000       4.440121       120.8218 
 250   0.0000       4.509815       122.7183 
 251   0.0000       4.537310       123.4665 
 252   0.0000       4.544977       123.6751 
 253   0.0000       4.556526       123.9894 
 254   0.0000       4.625746       125.8729 
 255   0.0000       4.633923       126.0954 
 256   0.0000       4.700084       127.8958 
 257   0.0000       4.777415       130.0001 
 258   0.0000       4.794173       130.4561 
 259   0.0000       4.804678       130.7419 
 260   0.0000       4.851866       132.0260 
 261   0.0000       4.886220       132.9608 
 262   0.0000       4.931585       134.1953 
 263   0.0000       4.960215       134.9743 
 264   0.0000       4.994903       135.9182 
 265   0.0000       5.017058       136.5211 
 266   0.0000       5.057013       137.6083 
 267   0.0000       5.069197       137.9399 
 268   0.0000       5.167765       140.6220 
 269   0.0000       5.192041       141.2826 
 270   0.0000       5.212121       141.8290 
 271   0.0000       5.232447       142.3821 
 272   0.0000       5.245695       142.7426 
 273   0.0000       5.315989       144.6554 
 274   0.0000       5.342775       145.3843 
 275   0.0000       5.405030       147.0783 
 276   0.0000       5.421099       147.5156 
 277   0.0000       5.541517       150.7923 
 278   0.0000       5.551970       151.0768 
 279   0.0000       5.567806       151.5077 
 280   0.0000       5.569675       151.5586 
 281   0.0000       5.655367       153.8904 
 282   0.0000       5.685636       154.7140 
 283   0.0000       5.710902       155.4015 
 284   0.0000       5.772236       157.0705 
 285   0.0000       5.817947       158.3144 
 286   0.0000       5.950371       161.9178 
 287   0.0000       6.005754       163.4249 
 288   0.0000       6.041468       164.3967 
 289   0.0000       6.044867       164.4892 
 290   0.0000       6.070105       165.1760 
 291   0.0000       6.122271       166.5955 
 292   0.0000       6.219442       169.2396 
 293   0.0000       6.477957       176.2742 
 294   0.0000       6.642531       180.7525 
 295   0.0000       6.655495       181.1052 
 296   0.0000       6.698428       182.2735 
 297   0.0000       6.729868       183.1290 
 298   0.0000       6.737114       183.3262 
 299   0.0000       6.792653       184.8375 
 300   0.0000       6.864121       186.7822 
 301   0.0000       6.891501       187.5273 
 302   0.0000       6.922609       188.3738 
 303   0.0000       6.938081       188.7948 
 304   0.0000       6.967624       189.5987 
 305   0.0000       6.974919       189.7972 
 306   0.0000       7.010755       190.7724 
 307   0.0000       7.019701       191.0158 
 308   0.0000       7.033472       191.3905 
 309   0.0000       7.084008       192.7657 
 310   0.0000       7.127375       193.9457 
 311   0.0000       7.249950       197.2812 
 312   0.0000       7.260370       197.5647 
 313   0.0000       7.293120       198.4559 
 314   0.0000       7.304989       198.7789 
 315   0.0000       7.503733       204.1870 
 316   0.0000       7.591924       206.5868 
 317   0.0000       7.647916       208.1104 
 318   0.0000       7.662532       208.5081 
 319   0.0000       7.744125       210.7283 
 320   0.0000       7.771244       211.4663 
 321   0.0000      11.968050       325.6672 
 322   0.0000      12.438779       338.4764 
 323   0.0000      13.497407       367.2831 
 324   0.0000      14.265748       388.1907 
 325   0.0000      17.054304       464.0712 

                    ********************************
                    * MULLIKEN POPULATION ANALYSIS *
                    ********************************

-----------------------
MULLIKEN ATOMIC CHARGES
-----------------------
   0 S :    2.076340
   1 O :   -0.996658
   2 O :   -0.989913
   3 N :   -1.037967
   4 H :    0.109473
   5 C :   -0.977998
   6 H :    0.284501
   7 H :    0.276815
   8 H :    0.255408
Sum of atomic charges:   -1.0000000

--------------------------------
MULLIKEN REDUCED ORBITAL CHARGES
--------------------------------
  0 S s       :     4.915228  s :     4.915228
      pz      :     2.679125  p :     8.063762
      px      :     2.684074
      py      :     2.700563
      dz2     :     0.225539  d :     0.861667
      dxz     :     0.166882
      dyz     :     0.136787
      dx2y2   :     0.194226
      dxy     :     0.138232
      f0      :     0.003009  f :     0.083004
      f+1     :     0.006228
      f-1     :     0.003102
      f+2     :     0.013964
      f-2     :     0.011906
      f+3     :     0.028425
      f-3     :     0.016369
  1 O s       :     3.963912  s :     3.963912
      pz      :     1.696735  p :     4.972451
      px      :     1.494934
      py      :     1.780782
      dz2     :     0.010098  d :     0.053647
      dxz     :     0.014002
      dyz     :     0.007682
      dx2y2   :     0.010102
      dxy     :     0.011763
      f0      :     0.000594  f :     0.006647
      f+1     :     0.001644
      f-1     :     0.000509
      f+2     :     0.001014
      f-2     :     0.000938
      f+3     :     0.001336
      f-3     :     0.000613
  2 O s       :     3.975373  s :     3.975373
      pz      :     1.842136  p :     4.952228
      px      :     1.437092
      py      :     1.672999
      dz2     :     0.005482  d :     0.055515
      dxz     :     0.013391
      dyz     :     0.005957
      dx2y2   :     0.014582
      dxy     :     0.016103
      f0      :     0.000875  f :     0.006797
      f+1     :     0.000599
      f-1     :     0.000342
      f+2     :     0.000488
      f-2     :     0.001290
      f+3     :     0.002363
      f-3     :     0.000840
  3 N s       :     3.902289  s :     3.902289
      pz      :     1.627957  p :     4.049134
      px      :     1.326119
      py      :     1.095058
      dz2     :     0.007225  d :     0.080588
      dxz     :     0.007487
      dyz     :     0.018590
      dx2y2   :     0.024582
      dxy     :     0.022703
      f0      :     0.000846  f :     0.005956
      f+1     :     0.000325
      f-1     :     0.001148
      f+2     :     0.000934
      f-2     :     0.000754
      f+3     :     0.000950
      f-3     :     0.001000
  4 H s       :     0.773063  s :     0.773063
      pz      :     0.049065  p :     0.099939
      px      :     0.013301
      py      :     0.037574
      dz2     :     0.002596  d :     0.017525
      dxz     :     0.004588
      dyz     :     0.002011
      dx2y2   :     0.003887
      dxy     :     0.004444
  5 C s       :     3.390868  s :     3.390868
      pz      :     1.088792  p :     3.426241
      px      :     1.165716
      py      :     1.171733
      dz2     :     0.032252  d :     0.162084
      dxz     :     0.030605
      dyz     :     0.015614
      dx2y2   :     0.040494
      dxy     :     0.043119
      f0      :    -0.000013  f :    -0.001195
      f+1     :    -0.000738
      f-1     :    -0.001186
      f+2     :    -0.000773
      f-2     :    -0.001244
      f+3     :    -0.000521
      f-3     :     0.003279
  6 H s       :     0.652192  s :     0.652192
      pz      :     0.025188  p :     0.054101
      px      :     0.014263
      py      :     0.014650
      dz2     :     0.004034  d :     0.009206
      dxz     :     0.001563
      dyz     :     0.001182
      dx2y2   :     0.001567
      dxy     :     0.000860
  7 H s       :     0.662723  s :     0.662723
      pz      :     0.020684  p :     0.051334
      px      :     0.018112
      py      :     0.012537
      dz2     :     0.001161  d :     0.009128
      dxz     :     0.004207
      dyz     :     0.001231
      dx2y2   :     0.002721
      dxy     :    -0.000193
  8 H s       :     0.675875  s :     0.675875
      pz      :     0.021917  p :     0.058505
      px      :     0.016737
      py      :     0.019851
      dz2     :     0.001665  d :     0.010212
      dxz     :     0.001339
      dyz     :     0.004359
      dx2y2   :    -0.000426
      dxy     :     0.003274


                     *******************************
                     * LOEWDIN POPULATION ANALYSIS *
                     *******************************

----------------------
LOEWDIN ATOMIC CHARGES
----------------------
   0 S :   -0.192603
   1 O :   -0.063708
   2 O :   -0.056494
   3 N :    0.247866
   4 H :   -0.616684
   5 C :    0.401427
   6 H :   -0.240789
   7 H :   -0.239383
   8 H :   -0.239632

-------------------------------
LOEWDIN REDUCED ORBITAL CHARGES
-------------------------------
  0 S s       :     4.516182  s :     4.516182
      pz      :     2.673442  p :     8.134306
      px      :     2.720134
      py      :     2.740730
      dz2     :     0.455425  d :     2.284016
      dxz     :     0.434802
      dyz     :     0.358413
      dx2y2   :     0.515213
      dxy     :     0.520162
      f0      :     0.147377  f :     1.258099
      f+1     :     0.165617
      f-1     :     0.118531
      f+2     :     0.157106
      f-2     :     0.171960
      f+3     :     0.319586
      f-3     :     0.177923
  1 O s       :     3.349857  s :     3.349857
      pz      :     1.486066  p :     4.430295
      px      :     1.446951
      py      :     1.497278
      dz2     :     0.045064  d :     0.217768
      dxz     :     0.053782
      dyz     :     0.023524
      dx2y2   :     0.046798
      dxy     :     0.048600
      f0      :     0.007772  f :     0.065788
      f+1     :     0.012111
      f-1     :     0.004157
      f+2     :     0.010557
      f-2     :     0.012178
      f+3     :     0.009500
      f-3     :     0.009513
  2 O s       :     3.347685  s :     3.347685
      pz      :     1.503217  p :     4.420646
      px      :     1.438683
      py      :     1.478747
      dz2     :     0.027414  d :     0.220245
      dxz     :     0.045830
      dyz     :     0.018699
      dx2y2   :     0.062987
      dxy     :     0.065315
      f0      :     0.006374  f :     0.067919
      f+1     :     0.008646
      f-1     :     0.004854
      f+2     :     0.004363
      f-2     :     0.009007
      f+3     :     0.016074
      f-3     :     0.018601
  3 N s       :     2.927096  s :     2.927096
      pz      :     1.175684  p :     3.396452
      px      :     1.173684
      py      :     1.047084
      dz2     :     0.040330  d :     0.318038
      dxz     :     0.019651
      dyz     :     0.065542
      dx2y2   :     0.096260
      dxy     :     0.096255
      f0      :     0.010443  f :     0.110548
      f+1     :     0.003156
      f-1     :     0.019055
      f+2     :     0.014998
      f-2     :     0.009713
      f+3     :     0.028309
      f-3     :     0.024874
  4 H s       :     0.682836  s :     0.682836
      pz      :     0.182291  p :     0.578676
      px      :     0.245937
      py      :     0.150448
      dz2     :     0.049145  d :     0.355172
      dxz     :     0.081685
      dyz     :     0.034364
      dx2y2   :     0.111883
      dxy     :     0.078094
  5 C s       :     2.503842  s :     2.503842
      pz      :     0.760833  p :     2.396010
      px      :     0.814659
      py      :     0.820518
      dz2     :     0.141795  d :     0.529470
      dxz     :     0.131863
      dyz     :     0.092768
      dx2y2   :     0.082551
      dxy     :     0.080493
      f0      :     0.040557  f :     0.169250
      f+1     :     0.036986
      f-1     :     0.034510
      f+2     :     0.019198
      f-2     :     0.019953
      f+3     :     0.003414
      f-3     :     0.014632
  6 H s       :     0.665938  s :     0.665938
      pz      :     0.112406  p :     0.338894
      px      :     0.125641
      py      :     0.100846
      dz2     :     0.069544  d :     0.235957
      dxz     :     0.040975
      dyz     :     0.025577
      dx2y2   :     0.054080
      dxy     :     0.045781
  7 H s       :     0.667588  s :     0.667588
      pz      :     0.090174  p :     0.336854
      px      :     0.137079
      py      :     0.109601
      dz2     :     0.026719  d :     0.234940
      dxz     :     0.064241
      dyz     :     0.016119
      dx2y2   :     0.080938
      dxy     :     0.046923
  8 H s       :     0.667011  s :     0.667011
      pz      :     0.093080  p :     0.338619
      px      :     0.093105
      py      :     0.152434
      dz2     :     0.031103  d :     0.234003
      dxz     :     0.010966
      dyz     :     0.065750
      dx2y2   :     0.042487
      dxy     :     0.083696


                      *****************************
                      * MAYER POPULATION ANALYSIS *
                      *****************************

  NA   - Mulliken gross atomic population
  ZA   - Total nuclear charge
  QA   - Mulliken gross atomic charge
  VA   - Mayer's total valence
  BVA  - Mayer's bonded valence
  FA   - Mayer's free valence

  ATOM       NA         ZA         QA         VA         BVA        FA
  0 S     13.9237    16.0000     2.0763     4.7046     4.7046    -0.0000
  1 O      8.9967     8.0000    -0.9967     1.4546     1.4546    -0.0000
  2 O      8.9899     8.0000    -0.9899     1.4810     1.4810    -0.0000
  3 N      8.0380     7.0000    -1.0380     2.4839     2.4839    -0.0000
  4 H      0.8905     1.0000     0.1095     1.0948     1.0948    -0.0000
  5 C      6.9780     6.0000    -0.9780     3.7462     3.7462    -0.0000
  6 H      0.7155     1.0000     0.2845     1.0197     1.0197     0.0000
  7 H      0.7232     1.0000     0.2768     1.0183     1.0183     0.0000
  8 H      0.7446     1.0000     0.2554     1.0481     1.0481    -0.0000

  Mayer bond orders larger than 0.100000
B(  0-S ,  1-O ) :   1.2161 B(  0-S ,  2-O ) :   1.2532 B(  0-S ,  3-N ) :   1.2441 
B(  0-S ,  5-C ) :   0.8044 B(  3-N ,  4-H ) :   0.9590 B(  5-C ,  6-H ) :   0.8996 
B(  5-C ,  7-H ) :   0.9070 B(  5-C ,  8-H ) :   0.9379 

-------
TIMINGS
-------

Total SCF time: 0 days 0 hours 0 min 20 sec 

Total time                  ....      20.041 sec
Sum of individual times     ....      19.425 sec  ( 96.9%)

Fock matrix formation       ....      18.370 sec  ( 91.7%)
  Split-RI-J                ....       1.226 sec  (  6.7% of F)
  Chain of spheres X        ....      13.453 sec  ( 73.2% of F)
  XC integration            ....       3.306 sec  ( 18.0% of F)
    Basis function eval.    ....       0.586 sec  ( 17.7% of XC)
    Density eval.           ....       0.753 sec  ( 22.8% of XC)
    XC-Functional eval.     ....       0.082 sec  (  2.5% of XC)
    XC-Potential eval.      ....       1.251 sec  ( 37.8% of XC)
Diagonalization             ....       0.136 sec  (  0.7%)
Density matrix formation    ....       0.019 sec  (  0.1%)
Population analysis         ....       0.026 sec  (  0.1%)
Initial guess               ....       0.140 sec  (  0.7%)
Orbital Transformation      ....       0.000 sec  (  0.0%)
Orbital Orthonormalization  ....       0.000 sec  (  0.0%)
DIIS solution               ....       0.087 sec  (  0.4%)
SOSCF solution              ....       0.111 sec  (  0.6%)
Grid generation             ....       0.536 sec  (  2.7%)

Maximum memory used throughout the entire SCF-calculation: 82.1 MB


           ************************************************************
           *        Program running with 8 parallel MPI-processes     *
           *              working on a common directory               *
           ************************************************************

------------------------------------------------------------------------------
                                ORCA  MP2 
------------------------------------------------------------------------------

Freezing NCore=18 chemical core electrons

   <<< Use J-auxbasis for calculation of Separable RI-J derivative contributions (Dim=291) >>> 


-------------
RI-MP2 ENERGY
-------------
Dimension of the basis                    ...  326
Memory devoted to MP2                     ... 5000 MB   
Data format for buffers                   ... DOUBLE
Compression type for matrix containers    ... UNCOMPRESSED
Scaling for aa/bb pairs                   ...   2.500e-01
Scaling for ab pairs                      ...   5.300e-01
Overall scaling of the MP2 energy         ...   1.000e+00
Calculating two index integrals           ... done (    0.007 sec)
Cholesky decomposition of V**-1           ... done (    0.047 sec)

-----------------
RI-TRANSFORMATION (AUX index driven)
-----------------

Dimension of the orbital-basis         ... 326
Dimension of the aux-basis             ... 755
Transformation of internal/external MOs...    9-  24 to   25- 325
Number Format for Storage              ... Double (8 Byte)
Integral mode                          ... Direct

First Phase: integral generation and transformation of MO indices
  Aux angular momentum 0               ... done (    0.031 sec)
  Aux angular momentum 1               ... done (    0.044 sec)
  Aux angular momentum 2               ... done (    0.064 sec)
  Aux angular momentum 3               ... done (    0.061 sec)
  Aux angular momentum 4               ... done (    0.041 sec)
Closing buffer VIA ( 0.03 GB; CompressionRatio= 1.00)
  Phase 1 completed in     0.460 sec
Second Phase: sorting and transformation of aux index

IA-Transformation
Memory available                       ... 4952 MB 
Max. # MO pairs treated in a batch     ... 2    
# of internal orbitals                 ... 16
# batches for internal orbitals        ... 1
Closing buffer IAV ( 0.03 GB; CompressionRatio= 1.00)
(ia|v) transformation done in     0.039 sec

  Phase 2 completed in     0.131 sec
RI-Integral transformation completed in     0.594 sec
Opening buffers                              ... done

Starting loop over batches of integrals:

Operator 0  - window                       ... (  9- 24)x( 25-325)
Operator 0  - Memory available             ...  5000 MB
Operator 0  - Memory needed per MO         ...   1.7 MB
Operator 0  - Number of orbitals per batch ... 2
Operator 0  - Number of batches            ... 1

OPERATOR  0   PASS   0:  MOs     9 ...   10 +   11 ...   12 +   13 ...   14 +   15 ...   16
                            +   17 ...   18 +   19 ...   20 +   21 ...   22 +   23 ...   24
  Reading integrals       ... ok
Time spent in pair loops =     0.016 sec
Deleting buffer (Ka|jb)[aa] ...done

-----------------------------------------------
 RI-MP2 CORRELATION ENERGY:     -0.565636494 Eh
-----------------------------------------------


-------
TIMINGS
-------

Total time                :    0.806 sec
Integral trafo            :    0.613 sec ( 76.0%)
I/O of integrals          :    0.002 sec (  0.3%)
K(i,j) Operators          :    0.009 sec (  1.1%)
T(i,j) pair energies      :    0.002 sec (  0.2%)
V-calculation             :    0.007 sec (  0.9%)
V**(-1/2)                 :    0.047 sec (  5.9%)
Gamma(ia|P)               :    0.000 sec (  0.0%)
Gamma-Trafo               :    0.000 sec (  0.0%)
D(virtual)                :    0.000 sec (  0.0%)
D(internal)               :    0.000 sec (  0.0%)
W(virtual)                :    0.000 sec (  0.0%)
W(internal)               :    0.000 sec (  0.0%)
L(virtual)                :    0.000 sec (  0.0%)
L(internal)               :    0.000 sec (  0.0%)
G(D)                      :    0.000 sec (  0.0%)
G(Z)                      :    0.000 sec (  0.0%)
Z-Vector Solution         :    0.000 sec (  0.0%)
3-Index Derivative        :    0.000 sec (  0.0%)
2-Index Derivative        :    0.000 sec (  0.0%)
Separable Gradient (RIJ)  :    0.000 sec (  0.0%)
Separable Gradient (COSX) :    0.000 sec (  0.0%)


---------------------------------------
MP2 TOTAL ENERGY:     -643.344060772 Eh
---------------------------------------

Maximum memory used throughout the entire MP2-calculation: 99.4 MB


-------------------------------------------------------------------------------
                          DFT DISPERSION CORRECTION                            
                                                                               
                              DFTD3 V3.1  Rev 1                                
                          USING Becke-Johnson damping                          
-------------------------------------------------------------------------------
The DSD-PBEP86 functional is recognized
Active option DFTDOPT                   ...         4   

molecular C6(AA) [au] = 1148.384570 


            DFT-D V3
 parameters
 s6 scaling factor         :     0.4180 
 a1 scaling factor         :     0.0000 
 s8 scaling factor         :     0.0000 
 a2 scaling factor         :     5.6500 
 ad hoc parameters k1-k3   :    16.0000     1.3333    -4.0000 

 Edisp/kcal,au: -3.039238087521  -0.004843333669 
 E6   /kcal   :  -3.039238088 
 E8   /kcal   :  -0.000000000 
 % E8         :   0.000000000 

-------------------------   ----------------
Dispersion correction           -0.004843334
-------------------------   ----------------


-------------------------   --------------------
FINAL SINGLE POINT ENERGY      -643.348904105977
-------------------------   --------------------


                            ***************************************
                            *     ORCA property calculations      *
                            ***************************************


  WARNING: The energy has been calculated at the MP2 level but the densities
           used in the property calculations are still SCF densities
           MP2 response densities have not been calculated 
           use %mp2 Density relaxed end
           or  %mp2 Density unrelaxed end

                                    ---------------------
                                    Active property flags
                                    ---------------------
   (+) Dipole Moment


------------------------------------------------------------------------------
                       ORCA ELECTRIC PROPERTIES CALCULATION
------------------------------------------------------------------------------

Dipole Moment Calculation                       ... on
Quadrupole Moment Calculation                   ... off
Polarizability Calculation                      ... off
GBWName                                         ... A.17.avtz.gbw
Electron density                                ... A.17.avtz.scfp
The origin for moment calculation is the CENTER OF MASS  = (-3.227834,  0.485085  2.214732)

-------------
DIPOLE MOMENT
-------------
                                X             Y             Z
Electronic contribution:     -1.36573       1.26425       3.55483
Nuclear contribution   :      2.25238      -1.26597      -4.80146
                        -----------------------------------------
Total Dipole Moment    :      0.88665      -0.00171      -1.24663
                        -----------------------------------------
Magnitude (a.u.)       :      1.52978
Magnitude (Debye)      :      3.88840



--------------------
Rotational spectrum 
--------------------
 
Rotational constants in cm-1:     0.161980     0.150108     0.146622 
Rotational constants in MHz :  4856.032896  4500.137597  4395.606453 

 Dipole components along the rotational axes: 
x,y,z [a.u.] :    -1.268053    -0.617056     0.592893 
x,y,z [Debye]:    -3.223134    -1.568432     1.507015 

 

Timings for individual modules:

Sum of individual times         ...       25.092 sec (=   0.418 min)
GTO integral calculation        ...        1.791 sec (=   0.030 min)   7.1 %
SCF iterations                  ...       21.221 sec (=   0.354 min)  84.6 %
MP2 module                      ...        2.080 sec (=   0.035 min)   8.3 %
                             ****ORCA TERMINATED NORMALLY****
TOTAL RUN TIME: 0 days 0 hours 0 minutes 27 seconds 23 msec
