
                                 *****************
                                 * O   R   C   A *
                                 *****************

                                            #,                                       
                                            ###                                      
                                            ####                                     
                                            #####                                    
                                            ######                                   
                                           ########,                                 
                                     ,,################,,,,,                         
                               ,,#################################,,                 
                          ,,##########################################,,             
                       ,#########################################, ''#####,          
                    ,#############################################,,   '####,        
                  ,##################################################,,,,####,       
                ,###########''''           ''''###############################       
              ,#####''   ,,,,##########,,,,          '''####'''          '####       
            ,##' ,,,,###########################,,,                        '##       
           ' ,,###''''                  '''############,,,                           
         ,,##''                                '''############,,,,        ,,,,,,###''
      ,#''                                            '''#######################'''  
     '                                                          ''''####''''         
             ,#######,   #######,   ,#######,      ##                                
            ,#'     '#,  ##    ##  ,#'     '#,    #''#        ######   ,####,        
            ##       ##  ##   ,#'  ##            #'  '#       #        #'  '#        
            ##       ##  #######   ##           ,######,      #####,   #    #        
            '#,     ,#'  ##    ##  '#,     ,#' ,#      #,         ##   #,  ,#        
             '#######'   ##     ##  '#######'  #'      '#     #####' # '####'        



                  #######################################################
                  #                        -***-                        #
                  #          Department of theory and spectroscopy      #
                  #    Directorship and core code : Frank Neese         #
                  #        Max Planck Institute fuer Kohlenforschung    #
                  #                Kaiser Wilhelm Platz 1               #
                  #                 D-45470 Muelheim/Ruhr               #
                  #                      Germany                        #
                  #                                                     #
                  #                  All rights reserved                #
                  #                        -***-                        #
                  #######################################################


                         Program Version 5.0.3 -  RELEASE  -


 With contributions from (in alphabetic order):
   Daniel Aravena         : Magnetic Suceptibility
   Michael Atanasov       : Ab Initio Ligand Field Theory (pilot matlab implementation)
   Alexander A. Auer      : GIAO ZORA, VPT2 properties, NMR spectrum
   Ute Becker             : Parallelization
   Giovanni Bistoni       : ED, misc. LED, open-shell LED, HFLD
   Martin Brehm           : Molecular dynamics
   Dmytro Bykov           : SCF Hessian
   Vijay G. Chilkuri      : MRCI spin determinant printing, contributions to CSF-ICE
   Dipayan Datta          : RHF DLPNO-CCSD density
   Achintya Kumar Dutta   : EOM-CC, STEOM-CC
   Dmitry Ganyushin       : Spin-Orbit,Spin-Spin,Magnetic field MRCI
   Miquel Garcia          : C-PCM and meta-GGA Hessian, CC/C-PCM, Gaussian charge scheme
   Yang Guo               : DLPNO-NEVPT2, F12-NEVPT2, CIM, IAO-localization
   Andreas Hansen         : Spin unrestricted coupled pair/coupled cluster methods
   Benjamin Helmich-Paris : MC-RPA, TRAH-SCF, COSX integrals
   Lee Huntington         : MR-EOM, pCC
   Robert Izsak           : Overlap fitted RIJCOSX, COSX-SCS-MP3, EOM
   Marcus Kettner         : VPT2
   Christian Kollmar      : KDIIS, OOCD, Brueckner-CCSD(T), CCSD density, CASPT2, CASPT2-K
   Simone Kossmann        : Meta GGA functionals, TD-DFT gradient, OOMP2, MP2 Hessian
   Martin Krupicka        : Initial AUTO-CI
   Lucas Lang             : DCDCAS
   Marvin Lechner         : AUTO-CI (C++ implementation), FIC-MRCC
   Dagmar Lenk            : GEPOL surface, SMD
   Dimitrios Liakos       : Extrapolation schemes; Compound Job, initial MDCI parallelization
   Dimitrios Manganas     : Further ROCIS development; embedding schemes
   Dimitrios Pantazis     : SARC Basis sets
   Anastasios Papadopoulos: AUTO-CI, single reference methods and gradients
   Taras Petrenko         : DFT Hessian,TD-DFT gradient, ASA, ECA, R-Raman, ABS, FL, XAS/XES, NRVS
   Peter Pinski           : DLPNO-MP2, DLPNO-MP2 Gradient
   Christoph Reimann      : Effective Core Potentials
   Marius Retegan         : Local ZFS, SOC
   Christoph Riplinger    : Optimizer, TS searches, QM/MM, DLPNO-CCSD(T), (RO)-DLPNO pert. Triples
   Tobias Risthaus        : Range-separated hybrids, TD-DFT gradient, RPA, STAB
   Michael Roemelt        : Original ROCIS implementation
   Masaaki Saitow         : Open-shell DLPNO-CCSD energy and density
   Barbara Sandhoefer     : DKH picture change effects
   Avijit Sen             : IP-ROCIS
   Kantharuban Sivalingam : CASSCF convergence, NEVPT2, FIC-MRCI
   Bernardo de Souza      : ESD, SOC TD-DFT
   Georgi Stoychev        : AutoAux, RI-MP2 NMR, DLPNO-MP2 response
   Willem Van den Heuvel  : Paramagnetic NMR
   Boris Wezisla          : Elementary symmetry handling
   Frank Wennmohs         : Technical directorship


 We gratefully acknowledge several colleagues who have allowed us to
 interface, adapt or use parts of their codes:
   Stefan Grimme, W. Hujo, H. Kruse, P. Pracht,  : VdW corrections, initial TS optimization,
                  C. Bannwarth, S. Ehlert          DFT functionals, gCP, sTDA/sTD-DF
   Ed Valeev, F. Pavosevic, A. Kumar             : LibInt (2-el integral package), F12 methods
   Garnet Chan, S. Sharma, J. Yang, R. Olivares  : DMRG
   Ulf Ekstrom                                   : XCFun DFT Library
   Mihaly Kallay                                 : mrcc  (arbitrary order and MRCC methods)
   Jiri Pittner, Ondrej Demel                    : Mk-CCSD
   Frank Weinhold                                : gennbo (NPA and NBO analysis)
   Christopher J. Cramer and Donald G. Truhlar   : smd solvation model
   Lars Goerigk                                  : TD-DFT with DH, B97 family of functionals
   V. Asgeirsson, H. Jonsson                     : NEB implementation
   FAccTs GmbH                                   : IRC, NEB, NEB-TS, DLPNO-Multilevel, CI-OPT
                                                   MM, QMMM, 2- and 3-layer-ONIOM, Crystal-QMMM,
                                                   LR-CPCM, SF, NACMEs, symmetry and pop. for TD-DFT,
                                                   nearIR, NL-DFT gradient (VV10), updates on ESD,
                                                   ML-optimized integration grids
   S Lehtola, MJT Oliveira, MAL Marques          : LibXC Library
   Liviu Ungur et al                             : ANISO software


 Your calculation uses the libint2 library for the computation of 2-el integrals
 For citations please refer to: http://libint.valeyev.net

 Your ORCA version has been built with support for libXC version: 5.1.0
 For citations please refer to: https://tddft.org/programs/libxc/

 This ORCA versions uses:
   CBLAS   interface :  Fast vector & matrix operations
   LAPACKE interface :  Fast linear algebra routines
   SCALAPACK package :  Parallel linear algebra routines
   Shared memory     :  Shared parallel matrices
   BLAS/LAPACK       :  OpenBLAS 0.3.15  USE64BITINT DYNAMIC_ARCH NO_AFFINITY SkylakeX SINGLE_THREADED
        Core in use  :  SkylakeX
   Copyright (c) 2011-2014, The OpenBLAS Project


Your calculation utilizes the atom-pairwise dispersion correction
with the Becke-Johnson damping scheme (D3BJ)
Cite in your paper:
S.Grimme, S.Ehrlich, L.Goerigk, J Comput Chem, (2011), 32, 1456–1465 
S.Grimme, J.Antony, S.Ehrlich and H.Krieg, J.Chem.Phys., 132, (2010), 154104 
   

================================================================================

----- Orbital basis set information -----
Your calculation utilizes the basis: aug-cc-pVTZ 
    H, B-Ne : Obtained from the ccRepo (grant-hill.group.shef.ac.uk/ccrepo) Feb. 2017
              R. A. Kendall, T. H. Dunning, Jr., R. J. Harrison, J. Chem. Phys. 96, 6796 (1992)
         He : Obtained from the ccRepo (grant-hill.group.shef.ac.uk/ccrepo) Feb. 2017
              D. E. Woon, T. H. Dunning, Jr., J. Chem. Phys. 100, 2975 (1994)
  Li-Be, Na : Obtained from the ccRepo (grant-hill.group.shef.ac.uk/ccrepo) Feb. 2017
              B. P. Prascher, D. E. Woon, K. A. Peterson, T. H. Dunning, Jr., A. K. Wilson, Theor. Chem. Acc. 128, 69 (2011)
         Mg : Obtained from the Peterson Research Group Website (tyr0.chem.wsu.edu/~kipeters) Feb. 2017
              B. P. Prascher, D. E. Woon, K. A. Peterson, T. H. Dunning, Jr., A. K. Wilson, Theor. Chem. Acc. 128, 69 (2011)
      Al-Ar : Obtained from the ccRepo (grant-hill.group.shef.ac.uk/ccrepo) Feb. 2017
              D. E. Woon, T. H. Dunning, Jr., J. Chem. Phys. 98, 1358 (1993)
      Sc-Zn : Obtained from the ccRepo (grant-hill.group.shef.ac.uk/ccrepo) Feb. 2017
              N. B. Balabanov, K. A. Peterson, J. Chem. Phys. 123, 064107 (2005)
              N. B. Balabanov, K. A. Peterson, J. Chem. Phys. 125, 074110 (2006)
      Ga-Kr : Obtained from the ccRepo (grant-hill.group.shef.ac.uk/ccrepo) Feb. 2017
              A. K. Wilson, D. E. Woon, K. A. Peterson, T. H. Dunning, Jr., J. Chem. Phys. 110, 7667 (1999)
     Ag, Au : Obtained from the Peterson Research Group Website (tyr0.chem.wsu.edu/~kipeters) Feb. 2017
              K. A. Peterson, C. Puzzarini, Theor. Chem. Acc. 114, 283 (2005)

----- AuxJ basis set information -----
Your calculation utilizes the auxiliary basis: def2/J
   F. Weigend, Phys. Chem. Chem. Phys. 8, 1057 (2006).

----- AuxC basis set information -----
Your calculation utilizes the auxiliary basis: aug-cc-pVTZ/C 
  H-He, B-F, Al-Ar, Ga-Kr : Obtained from the EMSL Basis Set Exchange (bse.pnl.gov) Feb. 2017
                            F. Weigend, A. Kohn, C. Hattig, J. Chem. Phys. 116, 3175 (2002)
                   Be, Mg : Obtained from the TURBOMOLE 7.0 basis set library
                            C. Haettig, Phys. Chem. Chem. Phys. 7, 59 (2005)
                       Ne : Obtained from the EMSL Basis Set Exchange (bse.pnl.gov) Feb. 2017
                            C. Haettig, Phys. Chem. Chem. Phys. 7, 59 (2005)
                            F. Weigend, A. Kohn, C. Hattig, J. Chem. Phys. 116, 3175 (2002)
                    Sc-Zn : Obtained from the EMSL Basis Set Exchange (bse.pnl.gov) Feb. 2017
                            J. G. Hill, J. A. Platts, J. Chem. Phys. 128, 044104 (2008)

================================================================================
                                        WARNINGS
                       Please study these warnings very carefully!
================================================================================


WARNING: No MP2 level density has been requested!
         To caclulate MP2 level properties use
         %mp2 Density relaxed end
         or
         %mp2 Density unrelaxed end
         Otherwise for double-hybrid DFT only the energy is correct!

WARNING: There are different parametrizations of Gershom Martin's DSD-DFs
         for use with and without D3(BJ)!
         You are using the D3(BJ) parametrized version,
         consistent with the GMTKN55 benchmark (L. Goerigk et al., PCCP 2017, 19, 32184)

WARNING: The frozen-core approximation is turned on by default for 
         the MP2 part of double-hybrid DFT.

INFO   : the flag for use of the SHARK integral package has been found!

================================================================================
                                       INPUT FILE
================================================================================
NAME = A.18.avtz.com
|  1> !PAL8
|  2> !RI-DSD-PBEP86 D3BJ aug-cc-pVTZ aug-cc-pVTZ/C TightSCF
|  3> %maxcore 5000
|  4> 
|  5> 
|  6> * xyz -1 1
|  7> C -0.5361061391  1.0461493986 -1.4284557678
|  8> S -0.6128091342  1.593851985  0.3063645781
|  9> O -2.0389318041  1.438588099  0.6197311382
| 10> O  0.3241450214  0.6124004704  0.9007888234
| 11> N -0.1689373398  3.0827694444  0.3634672836
| 12> H  0.8526459967  3.080753619  0.3840349316
| 13> O -1.3200778538  1.6778688385 -2.3477871986
| 14> C -1.0765360991  1.1349953346 -3.5488867836
| 15> C -0.1293618261  0.1627179888 -3.4212826143
| 16> C  0.2270997528  0.0971054983 -2.0345425009
| 17> S  0.4189329421 -0.8504339542 -4.7317149026
| 18> C -0.3875877817 -2.412804644 -4.4359888428
| 19> O  1.8558237456 -1.0851710398 -4.5861746266
| 20> O -0.1319065614 -0.3073676935 -5.9775598698
| 21> C  0.2319695828 -3.3567201 -3.626252827
| 22> C -0.4256654712 -4.55281319 -3.3602283154
| 23> C -1.6857731316 -4.7946119226 -3.909204492
| 24> C -2.3085036397 -3.8493688831 -4.7400800763
| 25> C -1.6449032325 -2.6521318456 -4.9848509272
| 26> O -2.3703988836 -5.9437262055 -3.6561495677
| 27> C -3.6551300952 -4.1519609266 -5.3435881471
| 28> N -3.5649180481 -5.0755715576 -6.4722305422
| 29> C -2.8866470797 -4.4688506952 -7.6042983159
| 30> C -4.8869772923 -5.5339590373 -6.8534401697
| 31> H -1.6200925779  1.5187419071 -4.3986979556
| 32> H  0.9436252293 -0.5455517112 -1.5456350828
| 33> H  1.216916116 -3.1542953191 -3.2163821712
| 34> H  0.0387177593 -5.3001718788 -2.7203246006
| 35> H -2.101503445 -1.8950714669 -5.6192381684
| 36> H -1.8782585528 -6.4800811418 -3.0188576162
| 37> H -4.1380064456 -3.202107201 -5.6482304888
| 38> H -4.2916104491 -4.6183059818 -4.5842863684
| 39> H -1.8735018987 -4.1705986222 -7.3235430207
| 40> H -3.4211848791 -3.5735996674 -7.9803974662
| 41> H -2.8172980384 -5.1968326334 -8.4182898107
| 42> H -5.3626176587 -6.0357436315 -6.0053551837
| 43> H -4.8036356778 -6.2509977533 -7.676096887
| 44> H -5.5441211097 -4.7045358805 -7.1835724471
| 45> *
| 46> 
| 47>                          ****END OF INPUT****
================================================================================

                       ****************************
                       * Single Point Calculation *
                       ****************************

---------------------------------
CARTESIAN COORDINATES (ANGSTROEM)
---------------------------------
  C     -0.536106    1.046149   -1.428456
  S     -0.612809    1.593852    0.306365
  O     -2.038932    1.438588    0.619731
  O      0.324145    0.612400    0.900789
  N     -0.168937    3.082769    0.363467
  H      0.852646    3.080754    0.384035
  O     -1.320078    1.677869   -2.347787
  C     -1.076536    1.134995   -3.548887
  C     -0.129362    0.162718   -3.421283
  C      0.227100    0.097105   -2.034543
  S      0.418933   -0.850434   -4.731715
  C     -0.387588   -2.412805   -4.435989
  O      1.855824   -1.085171   -4.586175
  O     -0.131907   -0.307368   -5.977560
  C      0.231970   -3.356720   -3.626253
  C     -0.425665   -4.552813   -3.360228
  C     -1.685773   -4.794612   -3.909204
  C     -2.308504   -3.849369   -4.740080
  C     -1.644903   -2.652132   -4.984851
  O     -2.370399   -5.943726   -3.656150
  C     -3.655130   -4.151961   -5.343588
  N     -3.564918   -5.075572   -6.472231
  C     -2.886647   -4.468851   -7.604298
  C     -4.886977   -5.533959   -6.853440
  H     -1.620093    1.518742   -4.398698
  H      0.943625   -0.545552   -1.545635
  H      1.216916   -3.154295   -3.216382
  H      0.038718   -5.300172   -2.720325
  H     -2.101503   -1.895071   -5.619238
  H     -1.878259   -6.480081   -3.018858
  H     -4.138006   -3.202107   -5.648230
  H     -4.291610   -4.618306   -4.584286
  H     -1.873502   -4.170599   -7.323543
  H     -3.421185   -3.573600   -7.980397
  H     -2.817298   -5.196833   -8.418290
  H     -5.362618   -6.035744   -6.005355
  H     -4.803636   -6.250998   -7.676097
  H     -5.544121   -4.704536   -7.183572

----------------------------
CARTESIAN COORDINATES (A.U.)
----------------------------
  NO LB      ZA    FRAG     MASS         X           Y           Z
   0 C     6.0000    0    12.011   -1.013094    1.976936   -2.699390
   1 S    16.0000    0    32.060   -1.158041    3.011944    0.578945
   2 O     8.0000    0    15.999   -3.853023    2.718538    1.171122
   3 O     8.0000    0    15.999    0.612545    1.157269    1.702244
   4 N     7.0000    0    14.007   -0.319245    5.825590    0.686854
   5 H     1.0000    0     1.008    1.611267    5.821781    0.725721
   6 O     8.0000    0    15.999   -2.494586    3.170713   -4.436675
   7 C     6.0000    0    12.011   -2.034358    2.144830   -6.706424
   8 C     6.0000    0    12.011   -0.244458    0.307492   -6.465287
   9 C     6.0000    0    12.011    0.429156    0.183503   -3.844728
  10 S    16.0000    0    32.060    0.791669   -1.607087   -8.941645
  11 C     6.0000    0    12.011   -0.732435   -4.559540   -8.382804
  12 O     8.0000    0    15.999    3.506999   -2.050676   -8.666614
  13 O     8.0000    0    15.999   -0.249267   -0.580841  -11.295951
  14 C     6.0000    0    12.011    0.438359   -6.343282   -6.852625
  15 C     6.0000    0    12.011   -0.804391   -8.603570   -6.349911
  16 C     6.0000    0    12.011   -3.185650   -9.060503   -7.387326
  17 C     6.0000    0    12.011   -4.362440   -7.274253   -8.957453
  18 C     6.0000    0    12.011   -3.108417   -5.011803   -9.420003
  19 O     8.0000    0    15.999   -4.479405  -11.232015   -6.909121
  20 C     6.0000    0    12.011   -6.907195   -7.846069  -10.097918
  21 N     7.0000    0    14.007   -6.736719   -9.591440  -12.230743
  22 C     6.0000    0    12.011   -5.454972   -8.444904  -14.370041
  23 C     6.0000    0    12.011   -9.235049  -10.457667  -12.951125
  24 H     1.0000    0     1.008   -3.061531    2.870006   -8.312334
  25 H     1.0000    0     1.008    1.783193   -1.030943   -2.920827
  26 H     1.0000    0     1.008    2.299638   -5.960754   -6.078081
  27 H     1.0000    0     1.008    0.073166  -10.015873   -5.140668
  28 H     1.0000    0     1.008   -3.971266   -3.581166  -10.618821
  29 H     1.0000    0     1.008   -3.549394  -12.245579   -5.704814
  30 H     1.0000    0     1.008   -7.819699   -6.051106  -10.673609
  31 H     1.0000    0     1.008   -8.109968   -8.727334   -8.663046
  32 H     1.0000    0     1.008   -3.540405   -7.881289  -13.839491
  33 H     1.0000    0     1.008   -6.465102   -6.753125  -15.080766
  34 H     1.0000    0     1.008   -5.323922   -9.820590  -15.908262
  35 H     1.0000    0     1.008  -10.133879  -11.405902  -11.348477
  36 H     1.0000    0     1.008   -9.077556  -11.812674  -14.505721
  37 H     1.0000    0     1.008  -10.476871   -8.890284  -13.574985

--------------------------------
INTERNAL COORDINATES (ANGSTROEM)
--------------------------------
 C      0   0   0     0.000000000000     0.00000000     0.00000000
 S      1   0   0     1.820841317950     0.00000000     0.00000000
 O      2   1   0     1.468377112627   102.26509996     0.00000000
 O      2   1   3     1.481374479531    98.99678229   120.63571998
 N      2   1   3     1.554721225733   108.12143233   241.94540172
 H      5   2   1     1.021792349311   106.51646449   277.05764933
 O      1   2   3     1.363397000090   118.61001109    56.99433449
 C      7   1   2     1.340397120486   108.18498422   178.54550090
 C      8   7   1     1.363358047107   109.34117002   359.39704125
 C      1   2   3     1.360334034775   131.14601041   234.58357231
 S      9   8   7     1.744802795349   124.20290975   176.72163393
 C     11   9   8     1.782955903187   104.01105598   256.29755976
 O     11   9   8     1.463194673472   109.08956456   142.74910650
 O     11   9   8     1.466449727889   107.75749173     9.85803098
 C     12  11   9     1.389424388467   119.35787247   271.47662478
 C     15  12  11     1.390644305697   119.00783087   177.63946227
 C     16  15  12     1.395604809880   120.05007915     0.34211716
 C     17  16  15     1.404148113992   121.10213691     0.37159855
 C     18  17  16     1.390559165893   118.17104949   358.93786245
 O     17  16  15     1.361327605751   121.81721416   181.02262804
 C     18  17  16     1.506382005656   119.88779747   178.59445929
 N     21  18  17     1.461173660848   112.41046096   283.40406820
 C     22  21  18     1.452494115546   111.51948782   292.48740332
 C     22  21  18     1.450269115309   110.27594772   169.11977135
 H      8   7   1     1.079302601501   118.03685745   179.80924504
 H     10   1   2     1.079558942749   125.86738177     1.68381237
 H     15  12  11     1.085858839662   119.85481109   357.37674281
 H     16  15  12     1.087967627602   120.09878505   180.61639649
 H     19  18  17     1.088150422896   120.09148397   180.37050167
 H     20  17  16     0.967481139010   109.54743915     4.05631686
 H     21  18  17     1.108241231036   109.11529510   159.97792553
 H     21  18  17     1.095045269634   109.10751437    42.67302993
 H     23  22  21     1.092813338414   110.28522262    59.65099552
 H     23  22  21     1.108447397318   112.12495495   298.89079815
 H     23  22  21     1.094234502052   109.35882333   178.63776743
 H     24  22  21     1.094198190733   109.72331930   300.83502819
 H     24  22  21     1.094465357821   109.58665458   181.95183242
 H     24  22  21     1.108498123753   112.47013353    61.62314413

---------------------------
INTERNAL COORDINATES (A.U.)
---------------------------
 C      0   0   0     0.000000000000     0.00000000     0.00000000
 S      1   0   0     3.440891424254     0.00000000     0.00000000
 O      2   1   0     2.774830604183   102.26509996     0.00000000
 O      2   1   3     2.799392068095    98.99678229   120.63571998
 N      2   1   3     2.937997331230   108.12143233   241.94540172
 H      5   2   1     1.930907705934   106.51646449   277.05764933
 O      1   2   3     2.576446941980   118.61001109    56.99433449
 C      7   1   2     2.532983468415   108.18498422   178.54550090
 C      8   7   1     2.576373331510   109.34117002   359.39704125
 C      1   2   3     2.570658776377   131.14601041   234.58357231
 S      9   8   7     3.297199440911   124.20290975   176.72163393
 C     11   9   8     3.369298365882   104.01105598   256.29755976
 O     11   9   8     2.765037213475   109.08956456   142.74910650
 O     11   9   8     2.771188374873   107.75749173     9.85803098
 C     12  11   9     2.625631577993   119.35787247   271.47662478
 C     15  12  11     2.627936887464   119.00783087   177.63946227
 C     16  15  12     2.637310881856   120.05007915     0.34211716
 C     17  16  15     2.653455386907   121.10213691     0.37159855
 C     18  17  16     2.627775996551   118.17104949   358.93786245
 O     17  16  15     2.572536353415   121.81721416   181.02262804
 C     18  17  16     2.846649443756   119.88779747   178.59445929
 N     21  18  17     2.761218053101   112.41046096   283.40406820
 C     22  21  18     2.744816089514   111.51948782   292.48740332
 C     22  21  18     2.740611448418   110.27594772   169.11977135
 H      8   7   1     2.039586332466   118.03685745   179.80924504
 H     10   1   2     2.040070747221   125.86738177     1.68381237
 H     15  12  11     2.051975827058   119.85481109   357.37674281
 H     16  15  12     2.055960858739   120.09878505   180.61639649
 H     19  18  17     2.056306291785   120.09148397   180.37050167
 H     20  17  16     1.828274392463   109.54743915     4.05631686
 H     21  18  17     2.094272416978   109.11529510   159.97792553
 H     21  18  17     2.069335663854   109.10751437    42.67302993
 H     23  22  21     2.065117925098   110.28522262    59.65099552
 H     23  22  21     2.094662014789   112.12495495   298.89079815
 H     23  22  21     2.067803535166   109.35882333   178.63776743
 H     24  22  21     2.067734916718   109.72331930   300.83502819
 H     24  22  21     2.068239789345   109.58665458   181.95183242
 H     24  22  21     2.094757873859   112.47013353    61.62314413

---------------------
BASIS SET INFORMATION
---------------------
There are 5 groups of distinct atoms

 Group   1 Type C   : 19s6p3d2f contracted to 5s4p3d2f pattern {88111/3111/111/11}
 Group   2 Type S   : 42s17p3d2f contracted to 6s5p3d2f pattern {131313111/77111/111/11}
 Group   3 Type O   : 19s6p3d2f contracted to 5s4p3d2f pattern {88111/3111/111/11}
 Group   4 Type N   : 19s6p3d2f contracted to 5s4p3d2f pattern {88111/3111/111/11}
 Group   5 Type H   : 6s3p2d contracted to 4s3p2d pattern {3111/111/11}

Atom   0C    basis set group =>   1
Atom   1S    basis set group =>   2
Atom   2O    basis set group =>   3
Atom   3O    basis set group =>   3
Atom   4N    basis set group =>   4
Atom   5H    basis set group =>   5
Atom   6O    basis set group =>   3
Atom   7C    basis set group =>   1
Atom   8C    basis set group =>   1
Atom   9C    basis set group =>   1
Atom  10S    basis set group =>   2
Atom  11C    basis set group =>   1
Atom  12O    basis set group =>   3
Atom  13O    basis set group =>   3
Atom  14C    basis set group =>   1
Atom  15C    basis set group =>   1
Atom  16C    basis set group =>   1
Atom  17C    basis set group =>   1
Atom  18C    basis set group =>   1
Atom  19O    basis set group =>   3
Atom  20C    basis set group =>   1
Atom  21N    basis set group =>   4
Atom  22C    basis set group =>   1
Atom  23C    basis set group =>   1
Atom  24H    basis set group =>   5
Atom  25H    basis set group =>   5
Atom  26H    basis set group =>   5
Atom  27H    basis set group =>   5
Atom  28H    basis set group =>   5
Atom  29H    basis set group =>   5
Atom  30H    basis set group =>   5
Atom  31H    basis set group =>   5
Atom  32H    basis set group =>   5
Atom  33H    basis set group =>   5
Atom  34H    basis set group =>   5
Atom  35H    basis set group =>   5
Atom  36H    basis set group =>   5
Atom  37H    basis set group =>   5
---------------------------------
AUXILIARY/J BASIS SET INFORMATION
---------------------------------
There are 5 groups of distinct atoms

 Group   1 Type C   : 12s5p4d2f1g contracted to 6s4p3d1f1g pattern {711111/2111/211/2/1}
 Group   2 Type S   : 14s5p5d2f1g contracted to 8s4p3d1f1g pattern {71111111/2111/311/2/1}
 Group   3 Type O   : 12s5p4d2f1g contracted to 6s4p3d1f1g pattern {711111/2111/211/2/1}
 Group   4 Type N   : 12s5p4d2f1g contracted to 6s4p3d1f1g pattern {711111/2111/211/2/1}
 Group   5 Type H   : 5s2p1d contracted to 3s1p1d pattern {311/2/1}

Atom   0C    basis set group =>   1
Atom   1S    basis set group =>   2
Atom   2O    basis set group =>   3
Atom   3O    basis set group =>   3
Atom   4N    basis set group =>   4
Atom   5H    basis set group =>   5
Atom   6O    basis set group =>   3
Atom   7C    basis set group =>   1
Atom   8C    basis set group =>   1
Atom   9C    basis set group =>   1
Atom  10S    basis set group =>   2
Atom  11C    basis set group =>   1
Atom  12O    basis set group =>   3
Atom  13O    basis set group =>   3
Atom  14C    basis set group =>   1
Atom  15C    basis set group =>   1
Atom  16C    basis set group =>   1
Atom  17C    basis set group =>   1
Atom  18C    basis set group =>   1
Atom  19O    basis set group =>   3
Atom  20C    basis set group =>   1
Atom  21N    basis set group =>   4
Atom  22C    basis set group =>   1
Atom  23C    basis set group =>   1
Atom  24H    basis set group =>   5
Atom  25H    basis set group =>   5
Atom  26H    basis set group =>   5
Atom  27H    basis set group =>   5
Atom  28H    basis set group =>   5
Atom  29H    basis set group =>   5
Atom  30H    basis set group =>   5
Atom  31H    basis set group =>   5
Atom  32H    basis set group =>   5
Atom  33H    basis set group =>   5
Atom  34H    basis set group =>   5
Atom  35H    basis set group =>   5
Atom  36H    basis set group =>   5
Atom  37H    basis set group =>   5
---------------------------------
AUXILIARY/C BASIS SET INFORMATION
---------------------------------
There are 5 groups of distinct atoms

 Group   1 Type C   : 9s7p6d4f2g contracted to 9s7p6d4f2g pattern {111111111/1111111/111111/1111/11}
 Group   2 Type S   : 11s9p8d6f3g contracted to 11s9p8d6f3g pattern {11111111111/111111111/11111111/111111/111}
 Group   3 Type O   : 9s7p6d4f2g contracted to 9s7p6d4f2g pattern {111111111/1111111/111111/1111/11}
 Group   4 Type N   : 9s7p6d4f2g contracted to 9s7p6d4f2g pattern {111111111/1111111/111111/1111/11}
 Group   5 Type H   : 5s4p3d2f contracted to 5s4p3d2f pattern {11111/1111/111/11}

Atom   0C    basis set group =>   1
Atom   1S    basis set group =>   2
Atom   2O    basis set group =>   3
Atom   3O    basis set group =>   3
Atom   4N    basis set group =>   4
Atom   5H    basis set group =>   5
Atom   6O    basis set group =>   3
Atom   7C    basis set group =>   1
Atom   8C    basis set group =>   1
Atom   9C    basis set group =>   1
Atom  10S    basis set group =>   2
Atom  11C    basis set group =>   1
Atom  12O    basis set group =>   3
Atom  13O    basis set group =>   3
Atom  14C    basis set group =>   1
Atom  15C    basis set group =>   1
Atom  16C    basis set group =>   1
Atom  17C    basis set group =>   1
Atom  18C    basis set group =>   1
Atom  19O    basis set group =>   3
Atom  20C    basis set group =>   1
Atom  21N    basis set group =>   4
Atom  22C    basis set group =>   1
Atom  23C    basis set group =>   1
Atom  24H    basis set group =>   5
Atom  25H    basis set group =>   5
Atom  26H    basis set group =>   5
Atom  27H    basis set group =>   5
Atom  28H    basis set group =>   5
Atom  29H    basis set group =>   5
Atom  30H    basis set group =>   5
Atom  31H    basis set group =>   5
Atom  32H    basis set group =>   5
Atom  33H    basis set group =>   5
Atom  34H    basis set group =>   5
Atom  35H    basis set group =>   5
Atom  36H    basis set group =>   5
Atom  37H    basis set group =>   5


           ************************************************************
           *        Program running with 8 parallel MPI-processes     *
           *              working on a common directory               *
           ************************************************************
------------------------------------------------------------------------------
                           ORCA GTO INTEGRAL CALCULATION
                           -- RI-GTO INTEGRALS CHOSEN --
------------------------------------------------------------------------------
------------------------------------------------------------------------------
                   ___                                                        
                  /   \      - P O W E R E D   B Y -                         
                 /     \                                                     
                 |  |  |   _    _      __       _____    __    __             
                 |  |  |  | |  | |    /  \     |  _  \  |  |  /  |          
                  \  \/   | |  | |   /    \    | | | |  |  | /  /          
                 / \  \   | |__| |  /  /\  \   | |_| |  |  |/  /          
                |  |  |   |  __  | /  /__\  \  |    /   |      \           
                |  |  |   | |  | | |   __   |  |    \   |  |\   \          
                \     /   | |  | | |  |  |  |  | |\  \  |  | \   \       
                 \___/    |_|  |_| |__|  |__|  |_| \__\ |__|  \__/        
                                                                              
                      - O R C A' S   B I G   F R I E N D -                    
                                      &                                       
                       - I N T E G R A L  F E E D E R -                       
                                                                              
 v1 FN, 2020, v2 2021                                                         
------------------------------------------------------------------------------


Reading SHARK input file A.18.avtz.SHARKINP.tmp ... ok
----------------------
SHARK INTEGRAL PACKAGE
----------------------

Number of atoms                             ...     38
Number of basis functions                   ...   1587
Number of shells                            ...    617
Maximum angular momentum                    ...      3
Integral batch strategy                     ... SHARK/LIBINT Hybrid
RI-J (if used) integral strategy            ... SPLIT-RIJ (Revised 2003 algorithm where possible)
Printlevel                                  ...      1
Contraction scheme used                     ... PARTIAL GENERAL contraction
Coulomb Range Separation                    ... NOT USED
Exchange Range Separation                   ... NOT USED
Finite Nucleus Model                        ... NOT USED
Auxiliary Coulomb fitting basis             ... AVAILABLE
   # of basis functions in Aux-J            ...   1296
   # of shells in Aux-J                     ...    424
   Maximum angular momentum in Aux-J        ...      4
Auxiliary J/K fitting basis                 ... NOT available
Auxiliary Correlation fitting basis         ... AVAILABLE
   # of basis functions in Aux-C            ...   3210
   # of shells in Aux-C                     ...    872
   Maximum angular momentum in Aux-C        ...      4
Auxiliary 'external' fitting basis          ... NOT available
Integral threshold                          ...     2.500000e-11
Primitive cut-off                           ...     2.500000e-12
Primitive pair pre-selection threshold      ...     2.500000e-12

Calculating pre-screening integrals         ... done (  0.1 sec) Dimension = 617
Calculating pre-screening integrals (ORCA)  ... done (  0.4 sec) Dimension = 461
Organizing shell pair data                  ... done (  1.1 sec)
Shell pair information
Total number of shell pairs                 ...    190653
Shell pairs after pre-screening             ...    116894
Total number of primitive shell pairs       ...    237813
Primitive shell pairs kept                  ...    133108
          la=0 lb=0:  25704 shell pairs
          la=1 lb=0:  30894 shell pairs
          la=1 lb=1:   8473 shell pairs
          la=2 lb=0:  19593 shell pairs
          la=2 lb=1:  10902 shell pairs
          la=2 lb=2:   3593 shell pairs
          la=3 lb=0:   8793 shell pairs
          la=3 lb=1:   4963 shell pairs
          la=3 lb=2:   3220 shell pairs
          la=3 lb=3:    759 shell pairs

Calculating one electron integrals          ... done (  0.3 sec)
Calculating RI/J V-Matrix + Cholesky decomp.... done (  0.1 sec)
Calculating RI/C V-Matrix + Cholesky decomp.... done (  0.5 sec)
Calculating Nuclear repulsion               ... done (  0.0 sec) ENN=   2300.234018739030 Eh

SHARK setup successfully completed in   3.8 seconds

Maximum memory used throughout the entire GTOINT-calculation: 154.7 MB


           ************************************************************
           *        Program running with 8 parallel MPI-processes     *
           *              working on a common directory               *
           ************************************************************
-------------------------------------------------------------------------------
                                 ORCA SCF
-------------------------------------------------------------------------------

------------
SCF SETTINGS
------------
Hamiltonian:
 Density Functional     Method          .... DFT(GTOs)
 Exchange Functional    Exchange        .... PBE
   PBE kappa parameter   XKappa         ....  0.804000
   PBE mue parameter    XMuePBE         ....  0.219520
 Correlation Functional Correlation     .... P86
 LDA part of GGA corr.  LDAOpt          .... VWN-5
 Gradients option       PostSCFGGA      .... off
 Hybrid DFT is turned on
   Fraction HF Exchange ScalHFX         ....  0.700000
   Scaling of DF-GGA-X  ScalDFX         ....  0.300000
   Scaling of DF-GGA-C  ScalDFC         ....  0.430000
   Scaling of DF-LDA-C  ScalLDAC        ....  0.430000
   Perturbative correction              ....  1.000000
   Density functional embedding theory  .... OFF
   NL short-range parameter             .... 14.200000
 RI-approximation to the Coulomb term is turned on
   Number of AuxJ basis functions       .... 1296
   RIJ-COSX (HFX calculated with COS-X)).... on


General Settings:
 Integral files         IntName         .... A.18.avtz
 Hartree-Fock type      HFTyp           .... RHF
 Total Charge           Charge          ....   -1
 Multiplicity           Mult            ....    1
 Number of Electrons    NEL             ....  188
 Basis Dimension        Dim             .... 1411
 Nuclear Repulsion      ENuc            ....   2300.2340187390 Eh

Convergence Acceleration:
 DIIS                   CNVDIIS         .... on
   Start iteration      DIISMaxIt       ....    12
   Startup error        DIISStart       ....  0.200000
   # of expansion vecs  DIISMaxEq       ....     5
   Bias factor          DIISBfac        ....   1.050
   Max. coefficient     DIISMaxC        ....  10.000
 Trust-Rad. Augm. Hess. CNVTRAH         .... auto
   Auto Start mean grad. ratio tolernc. ....  1.125000
   Auto Start start iteration           ....    20
   Auto Start num. interpolation iter.  ....    10
   Max. Number of Micro iterations      ....    16
   Max. Number of Macro iterations      .... Maxiter - #DIIS iter
   Number of Davidson start vectors     ....     2
   Converg. threshold I  (grad. norm)   ....   1.000e-05
   Converg. threshold II (energy diff.) ....   1.000e-08
   Grad. Scal. Fac. for Micro threshold ....   0.100
   Minimum threshold for Micro iter.    ....   0.010
   NR start threshold (gradient norm)   ....   0.001
   Initial trust radius                 ....   0.400
   Minimum AH scaling param. (alpha)    ....   1.000
   Maximum AH scaling param. (alpha)    .... 1000.000
   Orbital update algorithm             .... Taylor
   White noise on init. David. guess    .... on
   Maximum white noise                  ....   0.010
   Quad. conv. algorithm                .... NR
 SOSCF                  CNVSOSCF        .... on
   Start iteration      SOSCFMaxIt      ....   150
   Startup grad/error   SOSCFStart      ....  0.003300
 Level Shifting         CNVShift        .... on
   Level shift para.    LevelShift      ....    0.2500
   Turn off err/grad.   ShiftErr        ....    0.0010
 Zerner damping         CNVZerner       .... off
 Static damping         CNVDamp         .... on
   Fraction old density DampFac         ....    0.7000
   Max. Damping (<1)    DampMax         ....    0.9800
   Min. Damping (>=0)   DampMin         ....    0.0000
   Turn off err/grad.   DampErr         ....    0.1000
 Fernandez-Rico         CNVRico         .... off

SCF Procedure:
 Maximum # iterations   MaxIter         ....   125
 SCF integral mode      SCFMode         .... Direct
   Integral package                     .... SHARK and LIBINT hybrid scheme
 Reset frequency        DirectResetFreq ....    20
 Integral Threshold     Thresh          ....  2.500e-11 Eh
 Primitive CutOff       TCut            ....  2.500e-12 Eh

Convergence Tolerance:
 Convergence Check Mode ConvCheckMode   .... Total+1el-Energy
 Convergence forced     ConvForced      .... 0
 Energy Change          TolE            ....  1.000e-08 Eh
 1-El. energy change                    ....  1.000e-05 Eh
 Orbital Gradient       TolG            ....  1.000e-05
 Orbital Rotation angle TolX            ....  1.000e-05
 DIIS Error             TolErr          ....  5.000e-07


Diagonalization of the overlap matrix:
Smallest eigenvalue                        ... 3.410e-07
Time for diagonalization                   ...    0.248 sec
Threshold for overlap eigenvalues          ... 1.000e-08
Number of eigenvalues below threshold      ... 0
Time for construction of square roots      ...    0.167 sec
Total time needed                          ...    0.423 sec

Time for model grid setup =    0.408 sec

------------------------------
INITIAL GUESS: MODEL POTENTIAL
------------------------------
Loading Hartree-Fock densities                     ... done
Calculating cut-offs                               ... done
Initializing the effective Hamiltonian             ... done
Setting up the integral package (SHARK)            ... done
Starting the Coulomb interaction                   ... done (   1.7 sec)
Reading the grid                                   ... done
Mapping shells                                     ... done
Starting the XC term evaluation                    ... done (   1.4 sec)
  promolecular density results
     # of electrons  =    186.985196875
     EX              =   -182.949325082
     EC              =     -0.043653729
     EX+EC           =   -182.992978811
Transforming the Hamiltonian                       ... done (   0.1 sec)
Diagonalizing the Hamiltonian                      ... done (   0.3 sec)
Back transforming the eigenvectors                 ... done (   0.1 sec)
Now organizing SCF variables                       ... done
                      ------------------
                      INITIAL GUESS DONE (   4.0 sec)
                      ------------------
-------------------
DFT GRID GENERATION
-------------------

General Integration Accuracy     IntAcc      ... 4.388
Radial Grid Type                 RadialGrid  ... OptM3 with GC (2021)
Angular Grid (max. ang.)         AngularGrid ... 4 (Lebedev-302)
Angular grid pruning method      GridPruning ... 4 (adaptive)
Weight generation scheme         WeightScheme... Becke
Basis function cutoff            BFCut       ... 1.0000e-11
Integration weight cutoff        WCut        ... 1.0000e-14
Angular grids for H and He will be reduced by one unit
Partially contracted basis set               ... off
Rotationally invariant grid construction     ... off

Total number of grid points                  ...   196995
Total number of batches                      ...     3100
Average number of points per batch           ...       63
Average number of grid points per atom       ...     5184
Time for grid setup =    1.477 sec

--------------------
COSX GRID GENERATION
--------------------

GRIDX 1
-------
General Integration Accuracy     IntAcc      ... 3.816
Radial Grid Type                 RadialGrid  ... OptM3 with GC (2021)
Angular Grid (max. ang.)         AngularGrid ... 1 (Lebedev-50)
Angular grid pruning method      GridPruning ... 4 (adaptive)
Weight generation scheme         WeightScheme... Becke
Basis function cutoff            BFCut       ... 1.0000e-11
Integration weight cutoff        WCut        ... 1.0000e-14
Angular grids for H and He will be reduced by one unit
Partially contracted basis set               ... on
Rotationally invariant grid construction     ... off

Total number of grid points                  ...    24514
Total number of batches                      ...      401
Average number of points per batch           ...       61
Average number of grid points per atom       ...      645
UseSFitting                                  ... on

GRIDX 2
-------
General Integration Accuracy     IntAcc      ... 4.020
Radial Grid Type                 RadialGrid  ... OptM3 with GC (2021)
Angular Grid (max. ang.)         AngularGrid ... 2 (Lebedev-110)
Angular grid pruning method      GridPruning ... 4 (adaptive)
Weight generation scheme         WeightScheme... Becke
Basis function cutoff            BFCut       ... 1.0000e-11
Integration weight cutoff        WCut        ... 1.0000e-14
Angular grids for H and He will be reduced by one unit
Partially contracted basis set               ... on
Rotationally invariant grid construction     ... off

Total number of grid points                  ...    59222
Total number of batches                      ...      946
Average number of points per batch           ...       62
Average number of grid points per atom       ...     1558
UseSFitting                                  ... on

GRIDX 3
-------
General Integration Accuracy     IntAcc      ... 4.338
Radial Grid Type                 RadialGrid  ... OptM3 with GC (2021)
Angular Grid (max. ang.)         AngularGrid ... 3 (Lebedev-194)
Angular grid pruning method      GridPruning ... 4 (adaptive)
Weight generation scheme         WeightScheme... Becke
Basis function cutoff            BFCut       ... 1.0000e-11
Integration weight cutoff        WCut        ... 1.0000e-14
Angular grids for H and He will be reduced by one unit
Partially contracted basis set               ... on
Rotationally invariant grid construction     ... off

Total number of grid points                  ...   131516
Total number of batches                      ...     2073
Average number of points per batch           ...       63
Average number of grid points per atom       ...     3461
UseSFitting                                  ... on

Time for X-Grid setup             =    4.122 sec

 re-compute Schwartz prescreening matrix in partically contracted basis (1) ...done (   0.139 sec)
--------------
SCF ITERATIONS
--------------
ITER       Energy         Delta-E        Max-DP      RMS-DP      [F,P]     Damp
               ***  Starting incremental Fock matrix formation  ***
  0  -1856.5257402656   0.000000000000 0.29279363  0.00257114  0.3362762 0.7000
  1  -1856.8718220695  -0.346081803988 0.28580511  0.00224562  0.1834376 0.7000
                               ***Turning on DIIS***
  2  -1857.0400065433  -0.168184473777 0.74718288  0.00555165  0.0832392 0.0000
  3  -1857.3267604227  -0.286753879417 0.25437409  0.00140302  0.0790778 0.0000
  4  -1857.3671769627  -0.040416539951 0.08351512  0.00043203  0.0092210 0.0000
  5  -1857.3684676341  -0.001290671465 0.02426188  0.00016489  0.0059933 0.0000
                      *** Initiating the SOSCF procedure ***
                           *** Shutting down DIIS ***
                      *** Re-Reading the Fockian *** 
                      *** Removing any level shift *** 
ITER      Energy       Delta-E        Grad      Rot      Max-DP    RMS-DP
  6  -1857.36878003  -0.0003123948  0.000457  0.000457  0.032843  0.000152
               *** Restarting incremental Fock matrix formation ***
  7  -1857.36881308  -0.0000330539  0.000270  0.000688  0.603130  0.003808
  8  -1857.36884123  -0.0000281470  0.000153  0.000449  0.163273  0.000944
  9  -1857.36884270  -0.0000014745  0.000118  0.000139  0.130793  0.000699
 10  -1857.36884581  -0.0000031034  0.000018  0.000054  0.028953  0.000215
 11  -1857.36884597  -0.0000001579  0.000013  0.000028  0.016290  0.000077
 12  -1857.36884597  -0.0000000056  0.000003  0.000006  0.017962  0.000095
                  ***Gradient check signals convergence***
              ***Rediagonalizing the Fockian in SOSCF/NRSCF***

               *****************************************************
               *                     SUCCESS                       *
               *           SCF CONVERGED AFTER  13 CYCLES          *
               *****************************************************

Old exchange energy                            =   -130.179756749 Eh
New exchange energy                            =   -130.179461420 Eh
Exchange energy change after final integration =      0.000295329 Eh
Total energy after final integration           =  -1857.368550653 Eh
Final COS-X integration done in                =   101.917 sec

----------------
TOTAL SCF ENERGY
----------------

Total Energy       :        -1857.36855065 Eh          -50541.56775 eV

Components:
Nuclear Repulsion  :         2300.23401874 Eh           62592.54979 eV
Electronic Energy  :        -4157.60256939 Eh         -113134.11754 eV
One Electron Energy:        -7146.50647937 Eh         -194466.32778 eV
Two Electron Energy:         2988.90390998 Eh           81332.21024 eV
Max COSX asymmetry :            0.00004782 Eh               0.00130 eV

Virial components:
Potential Energy   :        -3709.55298584 Eh         -100942.06854 eV
Kinetic Energy     :         1852.18443519 Eh           50400.50079 eV
Virial Ratio       :            2.00279892


DFT components:
N(Alpha)           :       94.000221121271 electrons
N(Beta)            :       94.000221121271 electrons
N(Total)           :      188.000442242542 electrons
E(X)               :      -55.595419235608 Eh       
E(C)               :       -3.140118506744 Eh       
E(XC)              :      -58.735537742351 Eh       
DFET-embed. en.    :        0.000000000000 Eh       

---------------
SCF CONVERGENCE
---------------

  Last Energy change         ...   -1.0980e-08  Tolerance :   1.0000e-08
  Last MAX-Density change    ...    4.6629e-15  Tolerance :   1.0000e-07
  Last RMS-Density change    ...    2.1245e-17  Tolerance :   5.0000e-09
  Last Orbital Gradient      ...    2.2620e-06  Tolerance :   1.0000e-05
  Last Orbital Rotation      ...    7.0601e-06  Tolerance :   1.0000e-05

             **** THE GBW FILE WAS UPDATED (A.18.avtz.gbw) ****
             **** DENSITY A.18.avtz.scfp WAS UPDATED ****
             **** ENERGY FILE WAS UPDATED (A.18.avtz.en.tmp) ****
             **** THE GBW FILE WAS UPDATED (A.18.avtz.gbw) ****
             **** DENSITY A.18.avtz.scfp WAS UPDATED ****
----------------
ORBITAL ENERGIES
----------------

  NO   OCC          E(Eh)            E(eV) 
   0   2.0000     -90.935668     -2474.4853 
   1   2.0000     -90.861327     -2472.4624 
   2   2.0000     -20.006873      -544.4147 
   3   2.0000     -20.002918      -544.3071 
   4   2.0000     -19.924426      -542.1712 
   5   2.0000     -19.923016      -542.1328 
   6   2.0000     -19.838442      -539.8315 
   7   2.0000     -19.837060      -539.7939 
   8   2.0000     -15.030374      -408.9973 
   9   2.0000     -14.897474      -405.3809 
  10   2.0000     -10.853667      -295.3433 
  11   2.0000     -10.815593      -294.3072 
  12   2.0000     -10.799919      -293.8807 
  13   2.0000     -10.792864      -293.6888 
  14   2.0000     -10.791929      -293.6633 
  15   2.0000     -10.791855      -293.6613 
  16   2.0000     -10.790462      -293.6234 
  17   2.0000     -10.789937      -293.6091 
  18   2.0000     -10.785368      -293.4848 
  19   2.0000     -10.784269      -293.4549 
  20   2.0000     -10.783655      -293.4382 
  21   2.0000     -10.769007      -293.0396 
  22   2.0000     -10.737885      -292.1927 
  23   2.0000      -8.681590      -236.2381 
  24   2.0000      -8.602183      -234.0773 
  25   2.0000      -6.466775      -175.9699 
  26   2.0000      -6.466272      -175.9562 
  27   2.0000      -6.465161      -175.9260 
  28   2.0000      -6.389131      -173.8571 
  29   2.0000      -6.386538      -173.7865 
  30   2.0000      -6.385503      -173.7584 
  31   2.0000      -1.253002       -34.0959 
  32   2.0000      -1.235483       -33.6192 
  33   2.0000      -1.232223       -33.5305 
  34   2.0000      -1.149681       -31.2844 
  35   2.0000      -1.124644       -30.6031 
  36   2.0000      -1.068681       -29.0803 
  37   2.0000      -1.033730       -28.1292 
  38   2.0000      -0.997672       -27.1480 
  39   2.0000      -0.915566       -24.9138 
  40   2.0000      -0.895777       -24.3753 
  41   2.0000      -0.894264       -24.3341 
  42   2.0000      -0.872197       -23.7337 
  43   2.0000      -0.831492       -22.6261 
  44   2.0000      -0.808641       -22.0042 
  45   2.0000      -0.799747       -21.7622 
  46   2.0000      -0.761043       -20.7090 
  47   2.0000      -0.716022       -19.4840 
  48   2.0000      -0.696612       -18.9558 
  49   2.0000      -0.662623       -18.0309 
  50   2.0000      -0.647937       -17.6313 
  51   2.0000      -0.625501       -17.0207 
  52   2.0000      -0.614032       -16.7087 
  53   2.0000      -0.593410       -16.1475 
  54   2.0000      -0.564575       -15.3629 
  55   2.0000      -0.548397       -14.9226 
  56   2.0000      -0.542107       -14.7515 
  57   2.0000      -0.527928       -14.3656 
  58   2.0000      -0.518501       -14.1091 
  59   2.0000      -0.514671       -14.0049 
  60   2.0000      -0.494110       -13.4454 
  61   2.0000      -0.491361       -13.3706 
  62   2.0000      -0.486913       -13.2496 
  63   2.0000      -0.484842       -13.1932 
  64   2.0000      -0.475384       -12.9359 
  65   2.0000      -0.469440       -12.7741 
  66   2.0000      -0.467433       -12.7195 
  67   2.0000      -0.444549       -12.0968 
  68   2.0000      -0.441797       -12.0219 
  69   2.0000      -0.434376       -11.8200 
  70   2.0000      -0.433001       -11.7825 
  71   2.0000      -0.422572       -11.4988 
  72   2.0000      -0.414303       -11.2737 
  73   2.0000      -0.404725       -11.0131 
  74   2.0000      -0.403588       -10.9822 
  75   2.0000      -0.398662       -10.8481 
  76   2.0000      -0.396864       -10.7992 
  77   2.0000      -0.385684       -10.4950 
  78   2.0000      -0.377208       -10.2644 
  79   2.0000      -0.353139        -9.6094 
  80   2.0000      -0.348552        -9.4846 
  81   2.0000      -0.326388        -8.8815 
  82   2.0000      -0.308817        -8.4033 
  83   2.0000      -0.305062        -8.3012 
  84   2.0000      -0.282506        -7.6874 
  85   2.0000      -0.272133        -7.4051 
  86   2.0000      -0.261740        -7.1223 
  87   2.0000      -0.260132        -7.0786 
  88   2.0000      -0.253525        -6.8988 
  89   2.0000      -0.240787        -6.5521 
  90   2.0000      -0.234681        -6.3860 
  91   2.0000      -0.210492        -5.7278 
  92   2.0000      -0.206618        -5.6224 
  93   2.0000      -0.169273        -4.6061 
  94   0.0000       0.064155         1.7457 
  95   0.0000       0.070351         1.9144 
  96   0.0000       0.079762         2.1704 
  97   0.0000       0.083424         2.2701 
  98   0.0000       0.092461         2.5160 
  99   0.0000       0.097417         2.6509 
 100   0.0000       0.101293         2.7563 
 101   0.0000       0.103678         2.8212 
 102   0.0000       0.108866         2.9624 
 103   0.0000       0.111631         3.0376 
 104   0.0000       0.115978         3.1559 
 105   0.0000       0.117216         3.1896 
 106   0.0000       0.117902         3.2083 
 107   0.0000       0.123065         3.3488 
 108   0.0000       0.127757         3.4764 
 109   0.0000       0.133175         3.6239 
 110   0.0000       0.137224         3.7341 
 111   0.0000       0.143259         3.8983 
 112   0.0000       0.147741         4.0202 
 113   0.0000       0.149866         4.0780 
 114   0.0000       0.150084         4.0840 
 115   0.0000       0.156049         4.2463 
 116   0.0000       0.159288         4.3345 
 117   0.0000       0.160734         4.3738 
 118   0.0000       0.163324         4.4443 
 119   0.0000       0.167151         4.5484 
 120   0.0000       0.170583         4.6418 
 121   0.0000       0.173305         4.7159 
 122   0.0000       0.174200         4.7402 
 123   0.0000       0.176500         4.8028 
 124   0.0000       0.178218         4.8496 
 125   0.0000       0.181401         4.9362 
 126   0.0000       0.183928         5.0049 
 127   0.0000       0.188298         5.1238 
 128   0.0000       0.189117         5.1461 
 129   0.0000       0.190672         5.1884 
 130   0.0000       0.192866         5.2481 
 131   0.0000       0.196500         5.3470 
 132   0.0000       0.199673         5.4334 
 133   0.0000       0.200885         5.4664 
 134   0.0000       0.203739         5.5440 
 135   0.0000       0.207546         5.6476 
 136   0.0000       0.209315         5.6957 
 137   0.0000       0.210369         5.7244 
 138   0.0000       0.211036         5.7426 
 139   0.0000       0.213305         5.8043 
 140   0.0000       0.216526         5.8920 
 141   0.0000       0.220370         5.9966 
 142   0.0000       0.226986         6.1766 
 143   0.0000       0.228074         6.2062 
 144   0.0000       0.229518         6.2455 
 145   0.0000       0.234419         6.3789 
 146   0.0000       0.236355         6.4315 
 147   0.0000       0.242590         6.6012 
 148   0.0000       0.243753         6.6329 
 149   0.0000       0.246269         6.7013 
 150   0.0000       0.247975         6.7477 
 151   0.0000       0.249864         6.7991 
 152   0.0000       0.253598         6.9008 
 153   0.0000       0.255855         6.9622 
 154   0.0000       0.260730         7.0948 
 155   0.0000       0.262304         7.1376 
 156   0.0000       0.268048         7.2940 
 157   0.0000       0.270196         7.3524 
 158   0.0000       0.273074         7.4307 
 159   0.0000       0.274723         7.4756 
 160   0.0000       0.277142         7.5414 
 161   0.0000       0.278352         7.5744 
 162   0.0000       0.281694         7.6653 
 163   0.0000       0.283724         7.7205 
 164   0.0000       0.285512         7.7692 
 165   0.0000       0.288734         7.8568 
 166   0.0000       0.291031         7.9194 
 167   0.0000       0.295335         8.0365 
 168   0.0000       0.296692         8.0734 
 169   0.0000       0.297970         8.1082 
 170   0.0000       0.301049         8.1920 
 171   0.0000       0.301941         8.2162 
 172   0.0000       0.307719         8.3735 
 173   0.0000       0.308422         8.3926 
 174   0.0000       0.309829         8.4309 
 175   0.0000       0.314049         8.5457 
 176   0.0000       0.317083         8.6283 
 177   0.0000       0.319003         8.6805 
 178   0.0000       0.319959         8.7065 
 179   0.0000       0.322862         8.7855 
 180   0.0000       0.324448         8.8287 
 181   0.0000       0.327811         8.9202 
 182   0.0000       0.328770         8.9463 
 183   0.0000       0.331048         9.0083 
 184   0.0000       0.335161         9.1202 
 185   0.0000       0.336200         9.1485 
 186   0.0000       0.337634         9.1875 
 187   0.0000       0.339372         9.2348 
 188   0.0000       0.342333         9.3154 
 189   0.0000       0.344592         9.3768 
 190   0.0000       0.347669         9.4606 
 191   0.0000       0.349824         9.5192 
 192   0.0000       0.351518         9.5653 
 193   0.0000       0.354417         9.6442 
 194   0.0000       0.356097         9.6899 
 195   0.0000       0.357869         9.7381 
 196   0.0000       0.359146         9.7729 
 197   0.0000       0.362001         9.8505 
 198   0.0000       0.363913         9.9026 
 199   0.0000       0.369374        10.0512 
 200   0.0000       0.371910        10.1202 
 201   0.0000       0.374986        10.2039 
 202   0.0000       0.377376        10.2689 
 203   0.0000       0.378503        10.2996 
 204   0.0000       0.382053        10.3962 
 205   0.0000       0.382749        10.4151 
 206   0.0000       0.385954        10.5023 
 207   0.0000       0.386765        10.5244 
 208   0.0000       0.390556        10.6276 
 209   0.0000       0.395094        10.7511 
 210   0.0000       0.396014        10.7761 
 211   0.0000       0.396753        10.7962 
 212   0.0000       0.398221        10.8362 
 213   0.0000       0.403295        10.9742 
 214   0.0000       0.404547        11.0083 
 215   0.0000       0.406596        11.0641 
 216   0.0000       0.409328        11.1384 
 217   0.0000       0.410336        11.1658 
 218   0.0000       0.412986        11.2379 
 219   0.0000       0.414515        11.2795 
 220   0.0000       0.415420        11.3041 
 221   0.0000       0.419409        11.4127 
 222   0.0000       0.420351        11.4383 
 223   0.0000       0.422596        11.4994 
 224   0.0000       0.424337        11.5468 
 225   0.0000       0.424898        11.5621 
 226   0.0000       0.429345        11.6831 
 227   0.0000       0.430413        11.7121 
 228   0.0000       0.436117        11.8674 
 229   0.0000       0.437787        11.9128 
 230   0.0000       0.439055        11.9473 
 231   0.0000       0.441590        12.0163 
 232   0.0000       0.444181        12.0868 
 233   0.0000       0.447656        12.1813 
 234   0.0000       0.448532        12.2052 
 235   0.0000       0.449993        12.2449 
 236   0.0000       0.455399        12.3920 
 237   0.0000       0.457833        12.4583 
 238   0.0000       0.462264        12.5788 
 239   0.0000       0.465526        12.6676 
 240   0.0000       0.468104        12.7378 
 241   0.0000       0.470304        12.7976 
 242   0.0000       0.472766        12.8646 
 243   0.0000       0.475834        12.9481 
 244   0.0000       0.477863        13.0033 
 245   0.0000       0.479048        13.0356 
 246   0.0000       0.482903        13.1405 
 247   0.0000       0.483868        13.1667 
 248   0.0000       0.486096        13.2273 
 249   0.0000       0.491396        13.3716 
 250   0.0000       0.496548        13.5118 
 251   0.0000       0.497862        13.5475 
 252   0.0000       0.501355        13.6426 
 253   0.0000       0.504129        13.7181 
 254   0.0000       0.506185        13.7740 
 255   0.0000       0.509212        13.8564 
 256   0.0000       0.511744        13.9253 
 257   0.0000       0.513382        13.9698 
 258   0.0000       0.514874        14.0104 
 259   0.0000       0.519744        14.1430 
 260   0.0000       0.521419        14.1885 
 261   0.0000       0.523126        14.2350 
 262   0.0000       0.526258        14.3202 
 263   0.0000       0.528703        14.3867 
 264   0.0000       0.529899        14.4193 
 265   0.0000       0.533025        14.5044 
 266   0.0000       0.534047        14.5322 
 267   0.0000       0.535459        14.5706 
 268   0.0000       0.539902        14.6915 
 269   0.0000       0.540949        14.7200 
 270   0.0000       0.544354        14.8126 
 271   0.0000       0.548437        14.9237 
 272   0.0000       0.551531        15.0079 
 273   0.0000       0.552389        15.0313 
 274   0.0000       0.553319        15.0566 
 275   0.0000       0.557408        15.1678 
 276   0.0000       0.560902        15.2629 
 277   0.0000       0.562731        15.3127 
 278   0.0000       0.564282        15.3549 
 279   0.0000       0.565417        15.3858 
 280   0.0000       0.569304        15.4916 
 281   0.0000       0.572196        15.5702 
 282   0.0000       0.575911        15.6713 
 283   0.0000       0.576385        15.6842 
 284   0.0000       0.577488        15.7143 
 285   0.0000       0.578620        15.7451 
 286   0.0000       0.581160        15.8142 
 287   0.0000       0.584000        15.8914 
 288   0.0000       0.586365        15.9558 
 289   0.0000       0.589742        16.0477 
 290   0.0000       0.592793        16.1307 
 291   0.0000       0.595425        16.2023 
 292   0.0000       0.596094        16.2205 
 293   0.0000       0.598607        16.2889 
 294   0.0000       0.600372        16.3370 
 295   0.0000       0.605111        16.4659 
 296   0.0000       0.605276        16.4704 
 297   0.0000       0.612553        16.6684 
 298   0.0000       0.613830        16.7032 
 299   0.0000       0.616303        16.7705 
 300   0.0000       0.618566        16.8320 
 301   0.0000       0.620399        16.8819 
 302   0.0000       0.625158        17.0114 
 303   0.0000       0.627582        17.0774 
 304   0.0000       0.629765        17.1368 
 305   0.0000       0.635541        17.2939 
 306   0.0000       0.637329        17.3426 
 307   0.0000       0.638553        17.3759 
 308   0.0000       0.639991        17.4150 
 309   0.0000       0.641996        17.4696 
 310   0.0000       0.645042        17.5525 
 311   0.0000       0.647543        17.6206 
 312   0.0000       0.648036        17.6339 
 313   0.0000       0.648994        17.6600 
 314   0.0000       0.655361        17.8333 
 315   0.0000       0.657104        17.8807 
 316   0.0000       0.658489        17.9184 
 317   0.0000       0.663200        18.0466 
 318   0.0000       0.664210        18.0741 
 319   0.0000       0.666990        18.1497 
 320   0.0000       0.669530        18.2188 
 321   0.0000       0.673714        18.3327 
 322   0.0000       0.682477        18.5711 
 323   0.0000       0.684487        18.6258 
 324   0.0000       0.685638        18.6572 
 325   0.0000       0.690366        18.7858 
 326   0.0000       0.695424        18.9234 
 327   0.0000       0.695845        18.9349 
 328   0.0000       0.698038        18.9946 
 329   0.0000       0.702780        19.1236 
 330   0.0000       0.706442        19.2233 
 331   0.0000       0.707289        19.2463 
 332   0.0000       0.713338        19.4109 
 333   0.0000       0.718041        19.5389 
 334   0.0000       0.721191        19.6246 
 335   0.0000       0.724161        19.7054 
 336   0.0000       0.729530        19.8515 
 337   0.0000       0.735058        20.0019 
 338   0.0000       0.737482        20.0679 
 339   0.0000       0.738975        20.1085 
 340   0.0000       0.742648        20.2085 
 341   0.0000       0.746571        20.3152 
 342   0.0000       0.748834        20.3768 
 343   0.0000       0.753410        20.5013 
 344   0.0000       0.756324        20.5806 
 345   0.0000       0.759366        20.6634 
 346   0.0000       0.765569        20.8322 
 347   0.0000       0.767713        20.8905 
 348   0.0000       0.772076        21.0093 
 349   0.0000       0.773294        21.0424 
 350   0.0000       0.778529        21.1849 
 351   0.0000       0.780879        21.2488 
 352   0.0000       0.784102        21.3365 
 353   0.0000       0.786886        21.4123 
 354   0.0000       0.787430        21.4271 
 355   0.0000       0.789329        21.4787 
 356   0.0000       0.797806        21.7094 
 357   0.0000       0.798690        21.7335 
 358   0.0000       0.799672        21.7602 
 359   0.0000       0.801211        21.8021 
 360   0.0000       0.808538        22.0014 
 361   0.0000       0.814130        22.1536 
 362   0.0000       0.815558        22.1925 
 363   0.0000       0.817048        22.2330 
 364   0.0000       0.821679        22.3590 
 365   0.0000       0.824080        22.4243 
 366   0.0000       0.827080        22.5060 
 367   0.0000       0.830867        22.6090 
 368   0.0000       0.833609        22.6836 
 369   0.0000       0.834399        22.7051 
 370   0.0000       0.839298        22.8385 
 371   0.0000       0.842361        22.9218 
 372   0.0000       0.849308        23.1109 
 373   0.0000       0.851647        23.1745 
 374   0.0000       0.853191        23.2165 
 375   0.0000       0.860082        23.4040 
 376   0.0000       0.861633        23.4462 
 377   0.0000       0.865483        23.5510 
 378   0.0000       0.869948        23.6725 
 379   0.0000       0.872710        23.7477 
 380   0.0000       0.874461        23.7953 
 381   0.0000       0.878555        23.9067 
 382   0.0000       0.879267        23.9261 
 383   0.0000       0.882838        24.0233 
 384   0.0000       0.887074        24.1385 
 385   0.0000       0.891285        24.2531 
 386   0.0000       0.892734        24.2925 
 387   0.0000       0.898953        24.4618 
 388   0.0000       0.900331        24.4993 
 389   0.0000       0.903710        24.5912 
 390   0.0000       0.908517        24.7220 
 391   0.0000       0.912502        24.8305 
 392   0.0000       0.914973        24.8977 
 393   0.0000       0.915296        24.9065 
 394   0.0000       0.916771        24.9466 
 395   0.0000       0.920527        25.0488 
 396   0.0000       0.925703        25.1897 
 397   0.0000       0.926894        25.2221 
 398   0.0000       0.928165        25.2567 
 399   0.0000       0.933224        25.3943 
 400   0.0000       0.936759        25.4905 
 401   0.0000       0.938991        25.5512 
 402   0.0000       0.943097        25.6630 
 403   0.0000       0.945198        25.7201 
 404   0.0000       0.948769        25.8173 
 405   0.0000       0.951814        25.9002 
 406   0.0000       0.955782        26.0081 
 407   0.0000       0.959985        26.1225 
 408   0.0000       0.962404        26.1884 
 409   0.0000       0.963291        26.2125 
 410   0.0000       0.966067        26.2880 
 411   0.0000       0.971345        26.4316 
 412   0.0000       0.973244        26.4833 
 413   0.0000       0.975623        26.5481 
 414   0.0000       0.979267        26.6472 
 415   0.0000       0.980903        26.6917 
 416   0.0000       0.987768        26.8785 
 417   0.0000       0.990856        26.9626 
 418   0.0000       0.991852        26.9897 
 419   0.0000       0.997952        27.1557 
 420   0.0000       1.001547        27.2535 
 421   0.0000       1.003009        27.2933 
 422   0.0000       1.004324        27.3291 
 423   0.0000       1.006176        27.3795 
 424   0.0000       1.011695        27.5296 
 425   0.0000       1.013357        27.5748 
 426   0.0000       1.016624        27.6638 
 427   0.0000       1.018760        27.7219 
 428   0.0000       1.019421        27.7398 
 429   0.0000       1.025626        27.9087 
 430   0.0000       1.029490        28.0139 
 431   0.0000       1.031998        28.0821 
 432   0.0000       1.034739        28.1567 
 433   0.0000       1.038125        28.2488 
 434   0.0000       1.038766        28.2663 
 435   0.0000       1.041874        28.3508 
 436   0.0000       1.043370        28.3915 
 437   0.0000       1.047866        28.5139 
 438   0.0000       1.049449        28.5570 
 439   0.0000       1.050045        28.5732 
 440   0.0000       1.053042        28.6547 
 441   0.0000       1.057194        28.7677 
 442   0.0000       1.063889        28.9499 
 443   0.0000       1.065996        29.0072 
 444   0.0000       1.067609        29.0511 
 445   0.0000       1.070010        29.1164 
 446   0.0000       1.073092        29.2003 
 447   0.0000       1.076489        29.2928 
 448   0.0000       1.080598        29.4046 
 449   0.0000       1.080790        29.4098 
 450   0.0000       1.084090        29.4996 
 451   0.0000       1.089035        29.6342 
 452   0.0000       1.090913        29.6852 
 453   0.0000       1.093060        29.7437 
 454   0.0000       1.097836        29.8736 
 455   0.0000       1.101283        29.9674 
 456   0.0000       1.102756        30.0075 
 457   0.0000       1.106075        30.0978 
 458   0.0000       1.112535        30.2736 
 459   0.0000       1.114879        30.3374 
 460   0.0000       1.118915        30.4472 
 461   0.0000       1.120096        30.4794 
 462   0.0000       1.123669        30.5766 
 463   0.0000       1.126503        30.6537 
 464   0.0000       1.130203        30.7544 
 465   0.0000       1.131862        30.7995 
 466   0.0000       1.133220        30.8365 
 467   0.0000       1.139609        31.0103 
 468   0.0000       1.140209        31.0267 
 469   0.0000       1.141617        31.0650 
 470   0.0000       1.144707        31.1491 
 471   0.0000       1.149601        31.2822 
 472   0.0000       1.151641        31.3377 
 473   0.0000       1.153246        31.3814 
 474   0.0000       1.157619        31.5004 
 475   0.0000       1.160528        31.5796 
 476   0.0000       1.161836        31.6152 
 477   0.0000       1.163595        31.6630 
 478   0.0000       1.166640        31.7459 
 479   0.0000       1.170237        31.8438 
 480   0.0000       1.172344        31.9011 
 481   0.0000       1.177876        32.0516 
 482   0.0000       1.179109        32.0852 
 483   0.0000       1.182777        32.1850 
 484   0.0000       1.185358        32.2552 
 485   0.0000       1.189478        32.3674 
 486   0.0000       1.190646        32.3991 
 487   0.0000       1.194847        32.5134 
 488   0.0000       1.198875        32.6231 
 489   0.0000       1.201379        32.6912 
 490   0.0000       1.202841        32.7310 
 491   0.0000       1.206062        32.8186 
 492   0.0000       1.208317        32.8800 
 493   0.0000       1.212912        33.0050 
 494   0.0000       1.214676        33.0530 
 495   0.0000       1.215732        33.0817 
 496   0.0000       1.216866        33.1126 
 497   0.0000       1.222736        33.2723 
 498   0.0000       1.225854        33.3572 
 499   0.0000       1.227192        33.3936 
 500   0.0000       1.230865        33.4935 
 501   0.0000       1.233682        33.5702 
 502   0.0000       1.238437        33.6996 
 503   0.0000       1.242159        33.8009 
 504   0.0000       1.245106        33.8811 
 505   0.0000       1.246994        33.9324 
 506   0.0000       1.250235        34.0206 
 507   0.0000       1.254939        34.1486 
 508   0.0000       1.257044        34.2059 
 509   0.0000       1.258250        34.2387 
 510   0.0000       1.264449        34.4074 
 511   0.0000       1.265880        34.4463 
 512   0.0000       1.268070        34.5060 
 513   0.0000       1.276282        34.7294 
 514   0.0000       1.277475        34.7619 
 515   0.0000       1.279143        34.8073 
 516   0.0000       1.283791        34.9337 
 517   0.0000       1.288000        35.0483 
 518   0.0000       1.290130        35.1062 
 519   0.0000       1.292495        35.1706 
 520   0.0000       1.298736        35.3404 
 521   0.0000       1.301677        35.4204 
 522   0.0000       1.303318        35.4651 
 523   0.0000       1.307460        35.5778 
 524   0.0000       1.309832        35.6424 
 525   0.0000       1.312327        35.7102 
 526   0.0000       1.313367        35.7385 
 527   0.0000       1.316659        35.8281 
 528   0.0000       1.320844        35.9420 
 529   0.0000       1.326012        36.0826 
 530   0.0000       1.329225        36.1701 
 531   0.0000       1.331868        36.2420 
 532   0.0000       1.334745        36.3203 
 533   0.0000       1.339891        36.4603 
 534   0.0000       1.342289        36.5255 
 535   0.0000       1.346958        36.6526 
 536   0.0000       1.349058        36.7097 
 537   0.0000       1.353811        36.8391 
 538   0.0000       1.355729        36.8913 
 539   0.0000       1.361394        37.0454 
 540   0.0000       1.364811        37.1384 
 541   0.0000       1.367255        37.2049 
 542   0.0000       1.368215        37.2310 
 543   0.0000       1.370814        37.3017 
 544   0.0000       1.375909        37.4404 
 545   0.0000       1.379023        37.5251 
 546   0.0000       1.385110        37.6908 
 547   0.0000       1.389773        37.8176 
 548   0.0000       1.392752        37.8987 
 549   0.0000       1.398110        38.0445 
 550   0.0000       1.400347        38.1054 
 551   0.0000       1.405150        38.2361 
 552   0.0000       1.414068        38.4787 
 553   0.0000       1.415540        38.5188 
 554   0.0000       1.418282        38.5934 
 555   0.0000       1.420636        38.6575 
 556   0.0000       1.421658        38.6853 
 557   0.0000       1.424199        38.7544 
 558   0.0000       1.429088        38.8875 
 559   0.0000       1.431932        38.9649 
 560   0.0000       1.437025        39.1034 
 561   0.0000       1.440785        39.2058 
 562   0.0000       1.446209        39.3533 
 563   0.0000       1.452320        39.5196 
 564   0.0000       1.455048        39.5939 
 565   0.0000       1.458130        39.6777 
 566   0.0000       1.462225        39.7892 
 567   0.0000       1.466910        39.9166 
 568   0.0000       1.470490        40.0141 
 569   0.0000       1.472891        40.0794 
 570   0.0000       1.478590        40.2345 
 571   0.0000       1.479961        40.2718 
 572   0.0000       1.484163        40.3861 
 573   0.0000       1.492669        40.6176 
 574   0.0000       1.494120        40.6571 
 575   0.0000       1.500321        40.8258 
 576   0.0000       1.502576        40.8872 
 577   0.0000       1.506383        40.9908 
 578   0.0000       1.508648        41.0524 
 579   0.0000       1.513528        41.1852 
 580   0.0000       1.519852        41.3573 
 581   0.0000       1.523218        41.4489 
 582   0.0000       1.525240        41.5039 
 583   0.0000       1.527100        41.5545 
 584   0.0000       1.531496        41.6741 
 585   0.0000       1.538220        41.8571 
 586   0.0000       1.545655        42.0594 
 587   0.0000       1.548453        42.1356 
 588   0.0000       1.551704        42.2240 
 589   0.0000       1.552886        42.2562 
 590   0.0000       1.557668        42.3863 
 591   0.0000       1.562831        42.5268 
 592   0.0000       1.563606        42.5479 
 593   0.0000       1.567469        42.6530 
 594   0.0000       1.571333        42.7582 
 595   0.0000       1.574699        42.8497 
 596   0.0000       1.576174        42.8899 
 597   0.0000       1.582303        43.0566 
 598   0.0000       1.587366        43.1944 
 599   0.0000       1.592479        43.3336 
 600   0.0000       1.596544        43.4442 
 601   0.0000       1.600234        43.5446 
 602   0.0000       1.606454        43.7138 
 603   0.0000       1.609702        43.8022 
 604   0.0000       1.611343        43.8469 
 605   0.0000       1.613876        43.9158 
 606   0.0000       1.617390        44.0114 
 607   0.0000       1.623089        44.1665 
 608   0.0000       1.626725        44.2654 
 609   0.0000       1.629900        44.3518 
 610   0.0000       1.636961        44.5440 
 611   0.0000       1.640440        44.6386 
 612   0.0000       1.644970        44.7619 
 613   0.0000       1.650263        44.9059 
 614   0.0000       1.653585        44.9963 
 615   0.0000       1.654452        45.0199 
 616   0.0000       1.658143        45.1204 
 617   0.0000       1.661588        45.2141 
 618   0.0000       1.666580        45.3499 
 619   0.0000       1.669968        45.4421 
 620   0.0000       1.674823        45.5743 
 621   0.0000       1.681442        45.7544 
 622   0.0000       1.685065        45.8529 
 623   0.0000       1.689062        45.9617 
 624   0.0000       1.695501        46.1369 
 625   0.0000       1.698808        46.2269 
 626   0.0000       1.703069        46.3429 
 627   0.0000       1.704579        46.3839 
 628   0.0000       1.709613        46.5209 
 629   0.0000       1.713339        46.6223 
 630   0.0000       1.715473        46.6804 
 631   0.0000       1.717466        46.7346 
 632   0.0000       1.719862        46.7998 
 633   0.0000       1.726177        46.9717 
 634   0.0000       1.729710        47.0678 
 635   0.0000       1.736984        47.2657 
 636   0.0000       1.739459        47.3331 
 637   0.0000       1.743779        47.4506 
 638   0.0000       1.749648        47.6103 
 639   0.0000       1.750848        47.6430 
 640   0.0000       1.756284        47.7909 
 641   0.0000       1.763994        48.0007 
 642   0.0000       1.769372        48.1471 
 643   0.0000       1.770161        48.1685 
 644   0.0000       1.775504        48.3139 
 645   0.0000       1.779546        48.4239 
 646   0.0000       1.783688        48.5366 
 647   0.0000       1.787263        48.6339 
 648   0.0000       1.792593        48.7789 
 649   0.0000       1.793722        48.8097 
 650   0.0000       1.797973        48.9253 
 651   0.0000       1.801688        49.0264 
 652   0.0000       1.803104        49.0650 
 653   0.0000       1.805809        49.1386 
 654   0.0000       1.812447        49.3192 
 655   0.0000       1.820000        49.5247 
 656   0.0000       1.823877        49.6302 
 657   0.0000       1.825740        49.6809 
 658   0.0000       1.835362        49.9427 
 659   0.0000       1.838190        50.0197 
 660   0.0000       1.843055        50.1521 
 661   0.0000       1.844365        50.1877 
 662   0.0000       1.850772        50.3621 
 663   0.0000       1.853483        50.4358 
 664   0.0000       1.860620        50.6300 
 665   0.0000       1.862147        50.6716 
 666   0.0000       1.865254        50.7562 
 667   0.0000       1.871500        50.9261 
 668   0.0000       1.872657        50.9576 
 669   0.0000       1.879016        51.1306 
 670   0.0000       1.888546        51.3899 
[...]
      py      :     0.757148
      dz2     :     0.075059  d :     0.654310
      dxz     :     0.144162
      dyz     :     0.141895
      dx2y2   :     0.118814
      dxy     :     0.174380
      f0      :     0.023961  f :     0.265882
      f+1     :     0.039448
      f-1     :     0.020095
      f+2     :     0.038512
      f-2     :     0.032921
      f+3     :     0.069195
      f-3     :     0.041752
 24 H s       :     0.691253  s :     0.691253
      pz      :     0.111098  p :     0.288235
      px      :     0.095347
      py      :     0.081789
      dz2     :     0.058449  d :     0.203520
      dxz     :     0.044046
      dyz     :     0.043938
      dx2y2   :     0.029975
      dxy     :     0.027112
 25 H s       :     0.673365  s :     0.673365
      pz      :     0.092570  p :     0.307309
      px      :     0.110829
      py      :     0.103910
      dz2     :     0.043353  d :     0.214144
      dxz     :     0.037300
      dyz     :     0.030657
      dx2y2   :     0.055678
      dxy     :     0.047156
 26 H s       :     0.650864  s :     0.650864
      pz      :     0.088416  p :     0.309209
      px      :     0.133358
      py      :     0.087436
      dz2     :     0.032288  d :     0.225699
      dxz     :     0.058662
      dyz     :     0.021486
      dx2y2   :     0.045760
      dxy     :     0.067505
 27 H s       :     0.659397  s :     0.659397
      pz      :     0.105119  p :     0.300026
      px      :     0.086553
      py      :     0.108354
      dz2     :     0.045741  d :     0.217889
      dxz     :     0.037100
      dyz     :     0.044615
      dx2y2   :     0.050391
      dxy     :     0.040042
 28 H s       :     0.636551  s :     0.636551
      pz      :     0.098407  p :     0.309724
      px      :     0.098318
      py      :     0.112999
      dz2     :     0.043994  d :     0.231114
      dxz     :     0.039914
      dyz     :     0.046044
      dx2y2   :     0.054034
      dxy     :     0.047128
 29 H s       :     0.565770  s :     0.565770
      pz      :     0.185569  p :     0.518075
      px      :     0.180725
      py      :     0.151781
      dz2     :     0.092922  d :     0.376953
      dxz     :     0.074141
      dyz     :     0.070156
      dx2y2   :     0.072443
      dxy     :     0.067291
 30 H s       :     0.612103  s :     0.612103
      pz      :     0.079872  p :     0.291474
      px      :     0.090182
      py      :     0.121420
      dz2     :     0.022293  d :     0.227708
      dxz     :     0.027255
      dyz     :     0.065616
      dx2y2   :     0.062234
      dxy     :     0.050308
 31 H s       :     0.607945  s :     0.607945
      pz      :     0.104508  p :     0.304750
      px      :     0.103200
      py      :     0.097043
      dz2     :     0.056379  d :     0.245273
      dxz     :     0.044786
      dyz     :     0.057218
      dx2y2   :     0.048011
      dxy     :     0.038878
 32 H s       :     0.620912  s :     0.620912
      pz      :     0.094672  p :     0.314812
      px      :     0.131611
      py      :     0.088529
      dz2     :     0.025573  d :     0.235097
      dxz     :     0.063909
      dyz     :     0.032736
      dx2y2   :     0.045789
      dxy     :     0.067091
 33 H s       :     0.630034  s :     0.630034
      pz      :     0.076436  p :     0.296227
      px      :     0.097829
      py      :     0.121962
      dz2     :     0.027529  d :     0.218233
      dxz     :     0.024617
      dyz     :     0.055456
      dx2y2   :     0.066047
      dxy     :     0.044584
 34 H s       :     0.634870  s :     0.634870
      pz      :     0.102542  p :     0.302077
      px      :     0.086367
      py      :     0.113168
      dz2     :     0.060504  d :     0.226851
      dxz     :     0.045511
      dyz     :     0.045529
      dx2y2   :     0.030790
      dxy     :     0.044516
 35 H s       :     0.633314  s :     0.633314
      pz      :     0.128291  p :     0.303296
      px      :     0.078737
      py      :     0.096268
      dz2     :     0.064690  d :     0.228248
      dxz     :     0.040845
      dyz     :     0.061117
      dx2y2   :     0.031402
      dxy     :     0.030194
 36 H s       :     0.636410  s :     0.636410
      pz      :     0.120072  p :     0.303704
      px      :     0.075451
      py      :     0.108181
      dz2     :     0.067231  d :     0.227083
      dxz     :     0.047328
      dyz     :     0.042379
      dx2y2   :     0.025280
      dxy     :     0.044865
 37 H s       :     0.634222  s :     0.634222
      pz      :     0.086508  p :     0.297776
      px      :     0.086772
      py      :     0.124495
      dz2     :     0.022500  d :     0.216366
      dxz     :     0.026131
      dyz     :     0.061500
      dx2y2   :     0.063945
      dxy     :     0.042290


                      *****************************
                      * MAYER POPULATION ANALYSIS *
                      *****************************

  NA   - Mulliken gross atomic population
  ZA   - Total nuclear charge
  QA   - Mulliken gross atomic charge
  VA   - Mayer's total valence
  BVA  - Mayer's bonded valence
  FA   - Mayer's free valence

  ATOM       NA         ZA         QA         VA         BVA        FA
  0 C      5.4450     6.0000     0.5550     2.9771     2.9771     0.0000
  1 S     13.9405    16.0000     2.0595     4.6694     4.6694    -0.0000
  2 O      8.9910     8.0000    -0.9910     1.4819     1.4819     0.0000
  3 O      9.0020     8.0000    -1.0020     1.4289     1.4289    -0.0000
  4 N      8.0753     7.0000    -1.0753     2.5143     2.5143     0.0000
  5 H      0.8796     1.0000     0.1204     1.0872     1.0872     0.0000
  6 O      8.6370     8.0000    -0.6370     1.7409     1.7409    -0.0000
  7 C      6.7609     6.0000    -0.7609     2.6698     2.6698    -0.0000
  8 C      5.6269     6.0000     0.3731     3.3005     3.3005     0.0000
  9 C      6.9110     6.0000    -0.9110     3.3148     3.3148     0.0000
 10 S     13.7713    16.0000     2.2287     3.3302     3.3302    -0.0000
 11 C      5.2499     6.0000     0.7501     3.1893     3.1893    -0.0000
 12 O      9.1409     8.0000    -1.1409     1.0557     1.0557    -0.0000
 13 O      9.0785     8.0000    -1.0785     1.0621     1.0621    -0.0000
 14 C      6.4988     6.0000    -0.4988     2.8728     2.8728     0.0000
 15 C      6.9597     6.0000    -0.9597     2.7251     2.7251    -0.0000
 16 C      5.6036     6.0000     0.3964     3.8678     3.8678    -0.0000
 17 C      4.8255     6.0000     1.1745     2.0028     2.0028    -0.0000
 18 C      6.5651     6.0000    -0.5651     1.7539     1.7539    -0.0000
 19 O      8.8117     8.0000    -0.8117     1.5503     1.5503     0.0000
 20 C      6.5664     6.0000    -0.5664     3.7453     3.7453    -0.0000
 21 N      7.1523     7.0000    -0.1523     2.6138     2.6138    -0.0000
 22 C      7.1099     6.0000    -1.1099     3.6262     3.6262    -0.0000
 23 C      7.1428     6.0000    -1.1428     3.8884     3.8884     0.0000
 24 H      0.2903     1.0000     0.7097     0.3929     0.3929     0.0000
 25 H      0.6934     1.0000     0.3066     1.0357     1.0357     0.0000
 26 H      0.5888     1.0000     0.4112     0.7867     0.7867     0.0000
 27 H      0.4272     1.0000     0.5728     0.5424     0.5424    -0.0000
 28 H      0.9362     1.0000     0.0638     1.2619     1.2619    -0.0000
 29 H      0.8787     1.0000     0.1213     1.0841     1.0841     0.0000
 30 H      0.7582     1.0000     0.2418     0.8629     0.8629     0.0000
 31 H      0.7099     1.0000     0.2901     0.9576     0.9576    -0.0000
 32 H      0.4864     1.0000     0.5136     0.7027     0.7027    -0.0000
 33 H      0.6825     1.0000     0.3175     0.9628     0.9628    -0.0000
 34 H      0.7536     1.0000     0.2464     1.0843     1.0843    -0.0000
 35 H      0.6740     1.0000     0.3260     0.9645     0.9645     0.0000
 36 H      0.6702     1.0000     0.3298     0.9620     0.9620    -0.0000
 37 H      0.7048     1.0000     0.2952     1.0020     1.0020     0.0000

  Mayer bond orders larger than 0.100000
B(  0-C ,  1-S ) :   0.8077 B(  0-C ,  6-O ) :   0.7703 B(  0-C ,  7-C ) :   0.1519 
B(  0-C ,  8-C ) :  -0.1862 B(  0-C ,  9-C ) :   1.3397 B(  1-S ,  2-O ) :   1.2657 
B(  1-S ,  3-O ) :   1.2267 B(  1-S ,  4-N ) :   1.2597 B(  2-O ,  4-N ) :   0.1065 
B(  4-N ,  5-H ) :   0.9274 B(  6-O ,  7-C ) :   1.0097 B(  7-C ,  8-C ) :   0.8409 
B(  7-C ,  9-C ) :   0.3426 B(  7-C , 10-S ) :  -0.1175 B(  7-C , 24-H ) :   0.3736 
B(  8-C ,  9-C ) :   0.6576 B(  8-C , 10-S ) :   1.3192 B(  8-C , 11-C ) :   0.2227 
B(  8-C , 12-O ) :   0.1822 B(  8-C , 13-O ) :   0.1187 B(  9-C , 25-H ) :   1.0833 
B( 10-S , 11-C ) :   0.7950 B( 10-S , 12-O ) :   0.7102 B( 10-S , 13-O ) :   0.7885 
B( 10-S , 17-C ) :  -0.1236 B( 10-S , 18-C ) :   0.1645 B( 11-C , 12-O ) :   0.2157 
B( 11-C , 13-O ) :   0.1632 B( 11-C , 14-C ) :   1.0435 B( 11-C , 15-C ) :   0.1320 
B( 11-C , 16-C ) :   0.1691 B( 11-C , 17-C ) :   0.3732 B( 11-C , 18-C ) :   0.4045 
B( 11-C , 28-H ) :  -0.1369 B( 12-O , 15-C ) :  -0.1266 B( 13-O , 17-C ) :  -0.1265 
B( 14-C , 15-C ) :   1.0365 B( 14-C , 17-C ) :   0.1018 B( 14-C , 18-C ) :  -0.1372 
B( 14-C , 26-H ) :   0.8408 B( 15-C , 16-C ) :   1.1299 B( 15-C , 17-C ) :   0.3294 
B( 15-C , 18-C ) :  -0.2187 B( 15-C , 19-O ) :  -0.1010 B( 15-C , 27-H ) :   0.4892 
B( 16-C , 17-C ) :   1.7490 B( 16-C , 18-C ) :  -0.3704 B( 16-C , 19-O ) :   0.4300 
B( 16-C , 20-C ) :   0.2959 B( 16-C , 27-H ) :   0.1489 B( 17-C , 18-C ) :   0.4008 
B( 17-C , 21-N ) :  -0.1917 B( 17-C , 23-C ) :  -0.1310 B( 17-C , 28-H ) :  -0.1647 
B( 17-C , 30-H ) :  -0.1204 B( 17-C , 31-H ) :  -0.1207 B( 18-C , 21-N ) :  -0.1124 
B( 18-C , 28-H ) :   1.4552 B( 19-O , 29-H ) :   1.0733 B( 20-C , 21-N ) :   1.1528 
B( 20-C , 23-C ) :   0.1407 B( 20-C , 30-H ) :   0.9984 B( 20-C , 31-H ) :   0.9974 
B( 21-N , 22-C ) :   0.8717 B( 21-N , 23-C ) :   0.9806 B( 22-C , 32-H ) :   0.7180 
B( 22-C , 33-H ) :   0.9072 B( 22-C , 34-H ) :   1.0506 B( 23-C , 35-H ) :   0.9278 
B( 23-C , 36-H ) :   0.9234 B( 23-C , 37-H ) :   0.9309 

-------
TIMINGS
-------

Total SCF time: 0 days 0 hours 11 min 21 sec 

Total time                  ....     681.287 sec
Sum of individual times     ....     675.758 sec  ( 99.2%)

Fock matrix formation       ....     657.553 sec  ( 96.5%)
  Split-RI-J                ....      39.553 sec  (  6.0% of F)
  Chain of spheres X        ....     553.203 sec  ( 84.1% of F)
  XC integration            ....      62.538 sec  (  9.5% of F)
    Basis function eval.    ....       9.158 sec  ( 14.6% of XC)
    Density eval.           ....      29.152 sec  ( 46.6% of XC)
    XC-Functional eval.     ....       0.386 sec  (  0.6% of XC)
    XC-Potential eval.      ....      20.416 sec  ( 32.6% of XC)
Diagonalization             ....       2.680 sec  (  0.4%)
Density matrix formation    ....       0.400 sec  (  0.1%)
Population analysis         ....       0.935 sec  (  0.1%)
Initial guess               ....       3.554 sec  (  0.5%)
Orbital Transformation      ....       0.000 sec  (  0.0%)
Orbital Orthonormalization  ....       0.000 sec  (  0.0%)
DIIS solution               ....       1.905 sec  (  0.3%)
SOSCF solution              ....       2.725 sec  (  0.4%)
Grid generation             ....       6.007 sec  (  0.9%)

Maximum memory used throughout the entire SCF-calculation: 435.7 MB


           ************************************************************
           *        Program running with 8 parallel MPI-processes     *
           *              working on a common directory               *
           ************************************************************

------------------------------------------------------------------------------
                                ORCA  MP2 
------------------------------------------------------------------------------

Freezing NCore=62 chemical core electrons

   <<< Use J-auxbasis for calculation of Separable RI-J derivative contributions (Dim=1296) >>> 


-------------
RI-MP2 ENERGY
-------------
Dimension of the basis                    ... 1411
Memory devoted to MP2                     ... 5000 MB   
Data format for buffers                   ... DOUBLE
Compression type for matrix containers    ... UNCOMPRESSED
Scaling for aa/bb pairs                   ...   2.500e-01
Scaling for ab pairs                      ...   5.300e-01
Overall scaling of the MP2 energy         ...   1.000e+00
Calculating two index integrals           ... done (    0.109 sec)
Cholesky decomposition of V**-1           ... done (    1.033 sec)

-----------------
RI-TRANSFORMATION (AUX index driven)
-----------------

Dimension of the orbital-basis         ... 1411
Dimension of the aux-basis             ... 3210
Transformation of internal/external MOs...   31-  93 to   94-1410
Number Format for Storage              ... Double (8 Byte)
Integral mode                          ... Direct

First Phase: integral generation and transformation of MO indices
  Aux angular momentum 0               ... done (    2.049 sec)
  Aux angular momentum 1               ... done (    4.024 sec)
  Aux angular momentum 2               ... done (    5.535 sec)
  Aux angular momentum 3               ... done (    5.073 sec)
  Aux angular momentum 4               ... done (    2.513 sec)
Closing buffer VIA ( 1.98 GB; CompressionRatio= 1.00)
  Phase 1 completed in    19.497 sec
Second Phase: sorting and transformation of aux index

IA-Transformation
Memory available                       ... 4833 MB 
Max. # MO pairs treated in a batch     ... 8    
# of internal orbitals                 ... 63
# batches for internal orbitals        ... 1
Closing buffer IAV ( 1.98 GB; CompressionRatio= 1.00)
(ia|v) transformation done in     4.618 sec

  Phase 2 completed in     5.028 sec
RI-Integral transformation completed in    24.529 sec
Opening buffers                              ... done

Starting loop over batches of integrals:

Operator 0  - window                       ... ( 31- 93)x( 94-1410)
Operator 0  - Memory available             ...  5000 MB
Operator 0  - Memory needed per MO         ...  32.3 MB
Operator 0  - Number of orbitals per batch ... 8
Operator 0  - Number of batches            ... 1

OPERATOR  0   PASS   0:  MOs    31 ...   38 +   39 ...   46 +   47 ...   54 +   55 ...   62
                            +   63 ...   70 +   71 ...   78 +   79 ...   86 +   87 ...   93
  Reading integrals       ... ok
  Internal MO  33
  Internal MO  36
Time spent in pair loops =     7.438 sec
Deleting buffer (Ka|jb)[aa] ...done

-----------------------------------------------
 RI-MP2 CORRELATION ENERGY:     -2.268358970 Eh
-----------------------------------------------


-------
TIMINGS
-------

Total time                :  108.912 sec
Integral trafo            :   24.559 sec ( 22.5%)
I/O of integrals          :    0.174 sec (  0.2%)
K(i,j) Operators          :    6.137 sec (  5.6%)
T(i,j) pair energies      :    0.753 sec (  0.7%)
V-calculation             :    0.109 sec (  0.1%)
V**(-1/2)                 :    1.033 sec (  0.9%)
Gamma(ia|P)               :    0.000 sec (  0.0%)
Gamma-Trafo               :    0.000 sec (  0.0%)
D(virtual)                :    0.000 sec (  0.0%)
D(internal)               :    0.000 sec (  0.0%)
W(virtual)                :    0.000 sec (  0.0%)
W(internal)               :    0.000 sec (  0.0%)
L(virtual)                :    0.000 sec (  0.0%)
L(internal)               :    0.000 sec (  0.0%)
G(D)                      :    0.000 sec (  0.0%)
G(Z)                      :    0.000 sec (  0.0%)
Z-Vector Solution         :    0.000 sec (  0.0%)
3-Index Derivative        :    0.000 sec (  0.0%)
2-Index Derivative        :    0.000 sec (  0.0%)
Separable Gradient (RIJ)  :    0.000 sec (  0.0%)
Separable Gradient (COSX) :    0.000 sec (  0.0%)


---------------------------------------
MP2 TOTAL ENERGY:    -1859.636909623 Eh
---------------------------------------

Maximum memory used throughout the entire MP2-calculation: 531.8 MB


-------------------------------------------------------------------------------
                          DFT DISPERSION CORRECTION                            
                                                                               
                              DFTD3 V3.1  Rev 1                                
                          USING Becke-Johnson damping                          
-------------------------------------------------------------------------------
The DSD-PBEP86 functional is recognized
Active option DFTDOPT                   ...         4   

molecular C6(AA) [au] = 19469.612653 


            DFT-D V3
 parameters
 s6 scaling factor         :     0.4180 
 a1 scaling factor         :     0.0000 
 s8 scaling factor         :     0.0000 
 a2 scaling factor         :     5.6500 
 ad hoc parameters k1-k3   :    16.0000     1.3333    -4.0000 

 Edisp/kcal,au: -18.840519192456  -0.030024275268 
 E6   /kcal   : -18.840519192 
 E8   /kcal   :  -0.000000000 
 % E8         :   0.000000000 

-------------------------   ----------------
Dispersion correction           -0.030024275
-------------------------   ----------------


-------------------------   --------------------
FINAL SINGLE POINT ENERGY     -1859.666933898689
-------------------------   --------------------


                            ***************************************
                            *     ORCA property calculations      *
                            ***************************************


  WARNING: The energy has been calculated at the MP2 level but the densities
           used in the property calculations are still SCF densities
           MP2 response densities have not been calculated 
           use %mp2 Density relaxed end
           or  %mp2 Density unrelaxed end

                                    ---------------------
                                    Active property flags
                                    ---------------------
   (+) Dipole Moment


------------------------------------------------------------------------------
                       ORCA ELECTRIC PROPERTIES CALCULATION
------------------------------------------------------------------------------

Dipole Moment Calculation                       ... on
Quadrupole Moment Calculation                   ... off
Polarizability Calculation                      ... off
GBWName                                         ... A.18.avtz.gbw
Electron density                                ... A.18.avtz.scfp
The origin for moment calculation is the CENTER OF MASS  = (-2.012142, -2.697846 -6.350972)

-------------
DIPOLE MOMENT
-------------
                                X             Y             Z
Electronic contribution:     16.27776      21.33382      18.01078
Nuclear contribution   :    -17.68903     -27.34000     -23.01311
                        -----------------------------------------
Total Dipole Moment    :     -1.41127      -6.00618      -5.00233
                        -----------------------------------------
Magnitude (a.u.)       :      7.94287
Magnitude (Debye)      :     20.18917



--------------------
Rotational spectrum 
--------------------
 
Rotational constants in cm-1:     0.013228     0.003405     0.003202 
Rotational constants in MHz :   396.575412   102.084816    96.004494 

 Dipole components along the rotational axes: 
x,y,z [a.u.] :     7.905331     0.389284    -0.665874 
x,y,z [Debye]:    20.093756     0.989481    -1.692518 

 

Timings for individual modules:

Sum of individual times         ...      798.563 sec (=  13.309 min)
GTO integral calculation        ...        5.187 sec (=   0.086 min)   0.6 %
SCF iterations                  ...      682.687 sec (=  11.378 min)  85.5 %
MP2 module                      ...      110.689 sec (=   1.845 min)  13.9 %
                             ****ORCA TERMINATED NORMALLY****
TOTAL RUN TIME: 0 days 0 hours 13 minutes 22 seconds 219 msec
