
                                 *****************
                                 * O   R   C   A *
                                 *****************

                                            #,                                       
                                            ###                                      
                                            ####                                     
                                            #####                                    
                                            ######                                   
                                           ########,                                 
                                     ,,################,,,,,                         
                               ,,#################################,,                 
                          ,,##########################################,,             
                       ,#########################################, ''#####,          
                    ,#############################################,,   '####,        
                  ,##################################################,,,,####,       
                ,###########''''           ''''###############################       
              ,#####''   ,,,,##########,,,,          '''####'''          '####       
            ,##' ,,,,###########################,,,                        '##       
           ' ,,###''''                  '''############,,,                           
         ,,##''                                '''############,,,,        ,,,,,,###''
      ,#''                                            '''#######################'''  
     '                                                          ''''####''''         
             ,#######,   #######,   ,#######,      ##                                
            ,#'     '#,  ##    ##  ,#'     '#,    #''#        ######   ,####,        
            ##       ##  ##   ,#'  ##            #'  '#       #        #'  '#        
            ##       ##  #######   ##           ,######,      #####,   #    #        
            '#,     ,#'  ##    ##  '#,     ,#' ,#      #,         ##   #,  ,#        
             '#######'   ##     ##  '#######'  #'      '#     #####' # '####'        



                  #######################################################
                  #                        -***-                        #
                  #          Department of theory and spectroscopy      #
                  #    Directorship and core code : Frank Neese         #
                  #        Max Planck Institute fuer Kohlenforschung    #
                  #                Kaiser Wilhelm Platz 1               #
                  #                 D-45470 Muelheim/Ruhr               #
                  #                      Germany                        #
                  #                                                     #
                  #                  All rights reserved                #
                  #                        -***-                        #
                  #######################################################


                         Program Version 5.0.3 -  RELEASE  -


 With contributions from (in alphabetic order):
   Daniel Aravena         : Magnetic Suceptibility
   Michael Atanasov       : Ab Initio Ligand Field Theory (pilot matlab implementation)
   Alexander A. Auer      : GIAO ZORA, VPT2 properties, NMR spectrum
   Ute Becker             : Parallelization
   Giovanni Bistoni       : ED, misc. LED, open-shell LED, HFLD
   Martin Brehm           : Molecular dynamics
   Dmytro Bykov           : SCF Hessian
   Vijay G. Chilkuri      : MRCI spin determinant printing, contributions to CSF-ICE
   Dipayan Datta          : RHF DLPNO-CCSD density
   Achintya Kumar Dutta   : EOM-CC, STEOM-CC
   Dmitry Ganyushin       : Spin-Orbit,Spin-Spin,Magnetic field MRCI
   Miquel Garcia          : C-PCM and meta-GGA Hessian, CC/C-PCM, Gaussian charge scheme
   Yang Guo               : DLPNO-NEVPT2, F12-NEVPT2, CIM, IAO-localization
   Andreas Hansen         : Spin unrestricted coupled pair/coupled cluster methods
   Benjamin Helmich-Paris : MC-RPA, TRAH-SCF, COSX integrals
   Lee Huntington         : MR-EOM, pCC
   Robert Izsak           : Overlap fitted RIJCOSX, COSX-SCS-MP3, EOM
   Marcus Kettner         : VPT2
   Christian Kollmar      : KDIIS, OOCD, Brueckner-CCSD(T), CCSD density, CASPT2, CASPT2-K
   Simone Kossmann        : Meta GGA functionals, TD-DFT gradient, OOMP2, MP2 Hessian
   Martin Krupicka        : Initial AUTO-CI
   Lucas Lang             : DCDCAS
   Marvin Lechner         : AUTO-CI (C++ implementation), FIC-MRCC
   Dagmar Lenk            : GEPOL surface, SMD
   Dimitrios Liakos       : Extrapolation schemes; Compound Job, initial MDCI parallelization
   Dimitrios Manganas     : Further ROCIS development; embedding schemes
   Dimitrios Pantazis     : SARC Basis sets
   Anastasios Papadopoulos: AUTO-CI, single reference methods and gradients
   Taras Petrenko         : DFT Hessian,TD-DFT gradient, ASA, ECA, R-Raman, ABS, FL, XAS/XES, NRVS
   Peter Pinski           : DLPNO-MP2, DLPNO-MP2 Gradient
   Christoph Reimann      : Effective Core Potentials
   Marius Retegan         : Local ZFS, SOC
   Christoph Riplinger    : Optimizer, TS searches, QM/MM, DLPNO-CCSD(T), (RO)-DLPNO pert. Triples
   Tobias Risthaus        : Range-separated hybrids, TD-DFT gradient, RPA, STAB
   Michael Roemelt        : Original ROCIS implementation
   Masaaki Saitow         : Open-shell DLPNO-CCSD energy and density
   Barbara Sandhoefer     : DKH picture change effects
   Avijit Sen             : IP-ROCIS
   Kantharuban Sivalingam : CASSCF convergence, NEVPT2, FIC-MRCI
   Bernardo de Souza      : ESD, SOC TD-DFT
   Georgi Stoychev        : AutoAux, RI-MP2 NMR, DLPNO-MP2 response
   Willem Van den Heuvel  : Paramagnetic NMR
   Boris Wezisla          : Elementary symmetry handling
   Frank Wennmohs         : Technical directorship


 We gratefully acknowledge several colleagues who have allowed us to
 interface, adapt or use parts of their codes:
   Stefan Grimme, W. Hujo, H. Kruse, P. Pracht,  : VdW corrections, initial TS optimization,
                  C. Bannwarth, S. Ehlert          DFT functionals, gCP, sTDA/sTD-DF
   Ed Valeev, F. Pavosevic, A. Kumar             : LibInt (2-el integral package), F12 methods
   Garnet Chan, S. Sharma, J. Yang, R. Olivares  : DMRG
   Ulf Ekstrom                                   : XCFun DFT Library
   Mihaly Kallay                                 : mrcc  (arbitrary order and MRCC methods)
   Jiri Pittner, Ondrej Demel                    : Mk-CCSD
   Frank Weinhold                                : gennbo (NPA and NBO analysis)
   Christopher J. Cramer and Donald G. Truhlar   : smd solvation model
   Lars Goerigk                                  : TD-DFT with DH, B97 family of functionals
   V. Asgeirsson, H. Jonsson                     : NEB implementation
   FAccTs GmbH                                   : IRC, NEB, NEB-TS, DLPNO-Multilevel, CI-OPT
                                                   MM, QMMM, 2- and 3-layer-ONIOM, Crystal-QMMM,
                                                   LR-CPCM, SF, NACMEs, symmetry and pop. for TD-DFT,
                                                   nearIR, NL-DFT gradient (VV10), updates on ESD,
                                                   ML-optimized integration grids
   S Lehtola, MJT Oliveira, MAL Marques          : LibXC Library
   Liviu Ungur et al                             : ANISO software


 Your calculation uses the libint2 library for the computation of 2-el integrals
 For citations please refer to: http://libint.valeyev.net

 Your ORCA version has been built with support for libXC version: 5.1.0
 For citations please refer to: https://tddft.org/programs/libxc/

 This ORCA versions uses:
   CBLAS   interface :  Fast vector & matrix operations
   LAPACKE interface :  Fast linear algebra routines
   SCALAPACK package :  Parallel linear algebra routines
   Shared memory     :  Shared parallel matrices
   BLAS/LAPACK       :  OpenBLAS 0.3.15  USE64BITINT DYNAMIC_ARCH NO_AFFINITY SkylakeX SINGLE_THREADED
        Core in use  :  SkylakeX
   Copyright (c) 2011-2014, The OpenBLAS Project


Your calculation utilizes the atom-pairwise dispersion correction
with the Becke-Johnson damping scheme (D3BJ)
Cite in your paper:
S.Grimme, S.Ehrlich, L.Goerigk, J Comput Chem, (2011), 32, 1456–1465 
S.Grimme, J.Antony, S.Ehrlich and H.Krieg, J.Chem.Phys., 132, (2010), 154104 
   

================================================================================

----- Orbital basis set information -----
Your calculation utilizes the basis: aug-cc-pVTZ 
    H, B-Ne : Obtained from the ccRepo (grant-hill.group.shef.ac.uk/ccrepo) Feb. 2017
              R. A. Kendall, T. H. Dunning, Jr., R. J. Harrison, J. Chem. Phys. 96, 6796 (1992)
         He : Obtained from the ccRepo (grant-hill.group.shef.ac.uk/ccrepo) Feb. 2017
              D. E. Woon, T. H. Dunning, Jr., J. Chem. Phys. 100, 2975 (1994)
  Li-Be, Na : Obtained from the ccRepo (grant-hill.group.shef.ac.uk/ccrepo) Feb. 2017
              B. P. Prascher, D. E. Woon, K. A. Peterson, T. H. Dunning, Jr., A. K. Wilson, Theor. Chem. Acc. 128, 69 (2011)
         Mg : Obtained from the Peterson Research Group Website (tyr0.chem.wsu.edu/~kipeters) Feb. 2017
              B. P. Prascher, D. E. Woon, K. A. Peterson, T. H. Dunning, Jr., A. K. Wilson, Theor. Chem. Acc. 128, 69 (2011)
      Al-Ar : Obtained from the ccRepo (grant-hill.group.shef.ac.uk/ccrepo) Feb. 2017
              D. E. Woon, T. H. Dunning, Jr., J. Chem. Phys. 98, 1358 (1993)
      Sc-Zn : Obtained from the ccRepo (grant-hill.group.shef.ac.uk/ccrepo) Feb. 2017
              N. B. Balabanov, K. A. Peterson, J. Chem. Phys. 123, 064107 (2005)
              N. B. Balabanov, K. A. Peterson, J. Chem. Phys. 125, 074110 (2006)
      Ga-Kr : Obtained from the ccRepo (grant-hill.group.shef.ac.uk/ccrepo) Feb. 2017
              A. K. Wilson, D. E. Woon, K. A. Peterson, T. H. Dunning, Jr., J. Chem. Phys. 110, 7667 (1999)
     Ag, Au : Obtained from the Peterson Research Group Website (tyr0.chem.wsu.edu/~kipeters) Feb. 2017
              K. A. Peterson, C. Puzzarini, Theor. Chem. Acc. 114, 283 (2005)

----- AuxJ basis set information -----
Your calculation utilizes the auxiliary basis: def2/J
   F. Weigend, Phys. Chem. Chem. Phys. 8, 1057 (2006).

----- AuxC basis set information -----
Your calculation utilizes the auxiliary basis: aug-cc-pVTZ/C 
  H-He, B-F, Al-Ar, Ga-Kr : Obtained from the EMSL Basis Set Exchange (bse.pnl.gov) Feb. 2017
                            F. Weigend, A. Kohn, C. Hattig, J. Chem. Phys. 116, 3175 (2002)
                   Be, Mg : Obtained from the TURBOMOLE 7.0 basis set library
                            C. Haettig, Phys. Chem. Chem. Phys. 7, 59 (2005)
                       Ne : Obtained from the EMSL Basis Set Exchange (bse.pnl.gov) Feb. 2017
                            C. Haettig, Phys. Chem. Chem. Phys. 7, 59 (2005)
                            F. Weigend, A. Kohn, C. Hattig, J. Chem. Phys. 116, 3175 (2002)
                    Sc-Zn : Obtained from the EMSL Basis Set Exchange (bse.pnl.gov) Feb. 2017
                            J. G. Hill, J. A. Platts, J. Chem. Phys. 128, 044104 (2008)

================================================================================
                                        WARNINGS
                       Please study these warnings very carefully!
================================================================================


WARNING: No MP2 level density has been requested!
         To caclulate MP2 level properties use
         %mp2 Density relaxed end
         or
         %mp2 Density unrelaxed end
         Otherwise for double-hybrid DFT only the energy is correct!

WARNING: There are different parametrizations of Gershom Martin's DSD-DFs
         for use with and without D3(BJ)!
         You are using the D3(BJ) parametrized version,
         consistent with the GMTKN55 benchmark (L. Goerigk et al., PCCP 2017, 19, 32184)

WARNING: The frozen-core approximation is turned on by default for 
         the MP2 part of double-hybrid DFT.

INFO   : the flag for use of the SHARK integral package has been found!

================================================================================
                                       INPUT FILE
================================================================================
NAME = A.20.avtz.com
|  1> !PAL8
|  2> !RI-DSD-PBEP86 D3BJ aug-cc-pVTZ aug-cc-pVTZ/C TightSCF
|  3> %maxcore 5000
|  4> 
|  5> 
|  6> * xyz -1 1
|  7> C -1.6431720406  0.47990212 -1.4997719026
|  8> S -2.2963658179  0.2718308291  0.1982751557
|  9> O -2.8458192785  1.6012224753  0.4950586355
| 10> O -3.2801766212 -0.8150370527 -0.0210379668
| 11> N -1.075429549 -0.0690154618  1.100922232
| 12> H -0.9285187025 -1.0772034452  1.0221271112
| 13> S -2.6624919557  0.2882886544 -2.8855718318
| 14> C -1.3849909113  0.669251552 -3.9651544828
| 15> C -0.2363498175  0.9323119864 -3.2690554714
| 16> C -0.3719291236  0.8254475408 -1.8515956289
| 17> S  1.2855683906  1.2507693525 -4.090917746
| 18> C  2.1912264408 -0.2821625226 -3.9023606785
| 19> O  2.030782918  2.2705372304 -3.3526231818
| 20> O  1.007563047  1.4113550006 -5.5218519916
| 21> C  3.0094225818 -0.4519996283 -2.7924626016
| 22> C  3.6897449215 -1.6592905581 -2.6373681388
| 23> C  3.550809978 -2.681605117 -3.576256339
| 24> C  2.7285162185 -2.4825348474 -4.6916488321
| 25> C  2.0433330058 -1.2847097691 -4.8587115057
| 26> H -1.5072629284  0.6769585277 -5.0403494467
| 27> H  0.4112179778  0.9954086034 -1.1208151062
| 28> H  3.1171441537  0.3554335776 -2.0742264865
| 29> H  4.3366735464 -1.8044828912 -1.7754441548
| 30> H  1.4053605347 -1.1108987009 -5.7204520468
| 31> C  4.264408549 -4.0020669666 -3.3937133357
| 32> N  4.962139154 -4.4294905525 -4.5998051998
| 33> H  2.6427954521 -3.2746183424 -5.4308323045
| 34> H  3.529023538 -4.7788619805 -3.1473139887
| 35> H  4.9588894993 -3.9308297867 -2.5338281284
| 36> C  6.058962435 -3.5282681313 -4.9384689904
| 37> C  5.4708099909 -5.7877149158 -4.4651494834
| 38> C  6.1595801489 -6.2094695876 -5.7550126465
| 39> C  6.7357795728 -4.0009066004 -6.215380117
| 40> O  7.2149071701 -5.3272822605 -6.0824370621
| 41> H  6.8054219054 -3.4936204723 -4.1198065057
| 42> H  5.6625745739 -2.5175275367 -5.0810021556
| 43> H  4.6329798758 -6.4628378542 -4.2551283526
| 44> H  6.1927846657 -5.8641928359 -3.6275633527
| 45> H  5.4226079644 -6.2270730484 -6.5735969103
| 46> H  6.6034542866 -7.2029967003 -5.6518249913
| 47> H  7.6033564035 -3.3789407344 -6.4483637687
| 48> H  6.0199518463 -3.9479931493 -7.0506703009
| 49> *
| 50> 
| 51>                          ****END OF INPUT****
================================================================================

                       ****************************
                       * Single Point Calculation *
                       ****************************

---------------------------------
CARTESIAN COORDINATES (ANGSTROEM)
---------------------------------
  C     -1.643172    0.479902   -1.499772
  S     -2.296366    0.271831    0.198275
  O     -2.845819    1.601222    0.495059
  O     -3.280177   -0.815037   -0.021038
  N     -1.075430   -0.069015    1.100922
  H     -0.928519   -1.077203    1.022127
  S     -2.662492    0.288289   -2.885572
  C     -1.384991    0.669252   -3.965154
  C     -0.236350    0.932312   -3.269055
  C     -0.371929    0.825448   -1.851596
  S      1.285568    1.250769   -4.090918
  C      2.191226   -0.282163   -3.902361
  O      2.030783    2.270537   -3.352623
  O      1.007563    1.411355   -5.521852
  C      3.009423   -0.452000   -2.792463
  C      3.689745   -1.659291   -2.637368
  C      3.550810   -2.681605   -3.576256
  C      2.728516   -2.482535   -4.691649
  C      2.043333   -1.284710   -4.858712
  H     -1.507263    0.676959   -5.040349
  H      0.411218    0.995409   -1.120815
  H      3.117144    0.355434   -2.074226
  H      4.336674   -1.804483   -1.775444
  H      1.405361   -1.110899   -5.720452
  C      4.264409   -4.002067   -3.393713
  N      4.962139   -4.429491   -4.599805
  H      2.642795   -3.274618   -5.430832
  H      3.529024   -4.778862   -3.147314
  H      4.958889   -3.930830   -2.533828
  C      6.058962   -3.528268   -4.938469
  C      5.470810   -5.787715   -4.465149
  C      6.159580   -6.209470   -5.755013
  C      6.735780   -4.000907   -6.215380
  O      7.214907   -5.327282   -6.082437
  H      6.805422   -3.493620   -4.119807
  H      5.662575   -2.517528   -5.081002
  H      4.632980   -6.462838   -4.255128
  H      6.192785   -5.864193   -3.627563
  H      5.422608   -6.227073   -6.573597
  H      6.603454   -7.202997   -5.651825
  H      7.603356   -3.378941   -6.448364
  H      6.019952   -3.947993   -7.050670

----------------------------
CARTESIAN COORDINATES (A.U.)
----------------------------
  NO LB      ZA    FRAG     MASS         X           Y           Z
   0 C     6.0000    0    12.011   -3.105145    0.906884   -2.834158
   1 S    16.0000    0    32.060   -4.339502    0.513686    0.374686
   2 O     8.0000    0    15.999   -5.377819    3.025872    0.935525
   3 O     8.0000    0    15.999   -6.198635   -1.540197   -0.039756
   4 N     7.0000    0    14.007   -2.032267   -0.130420    2.080442
   5 H     1.0000    0     1.008   -1.754646   -2.035620    1.931540
   6 S    16.0000    0    32.060   -5.031381    0.544787   -5.452941
   7 C     6.0000    0    12.011   -2.617254    1.264702   -7.493056
   8 C     6.0000    0    12.011   -0.446636    1.761814   -6.177620
   9 C     6.0000    0    12.011   -0.702844    1.559870   -3.499009
  10 S    16.0000    0    32.060    2.429372    2.363612   -7.730714
  11 C     6.0000    0    12.011    4.140818   -0.533210   -7.374393
  12 O     8.0000    0    15.999    3.837624    4.290694   -6.335540
  13 O     8.0000    0    15.999    1.904018    2.667074  -10.434788
  14 C     6.0000    0    12.011    5.686985   -0.854156   -5.276990
  15 C     6.0000    0    12.011    6.972607   -3.135605   -4.983903
  16 C     6.0000    0    12.011    6.710058   -5.067499   -6.758145
  17 C     6.0000    0    12.011    5.156148   -4.691311   -8.865931
  18 C     6.0000    0    12.011    3.861340   -2.427750   -9.181634
  19 H     1.0000    0     1.008   -2.848314    1.279266   -9.524880
  20 H     1.0000    0     1.008    0.777089    1.881050   -2.118034
  21 H     1.0000    0     1.008    5.890549    0.671672   -3.919720
  22 H     1.0000    0     1.008    8.195125   -3.409978   -3.355103
  23 H     1.0000    0     1.008    2.655747   -2.099294  -10.810088
  24 C     6.0000    0    12.011    8.058564   -7.562811   -6.413189
  25 N     7.0000    0    14.007    9.377084   -8.370524   -8.692372
  26 H     1.0000    0     1.008    4.994160   -6.188132  -10.262786
  27 H     1.0000    0     1.008    6.668888   -9.030740   -5.947561
  28 H     1.0000    0     1.008    9.370943   -7.428192   -4.788241
  29 C     6.0000    0    12.011   11.449780   -6.667460   -9.332354
  30 C     6.0000    0    12.011   10.338333  -10.937196   -8.437910
  31 C     6.0000    0    12.011   11.639920  -11.734197  -10.875398
  32 C     6.0000    0    12.011   12.728779   -7.560618  -11.745366
  33 O     8.0000    0    15.999   13.634199  -10.067105  -11.494140
  34 H     1.0000    0     1.008   12.860384   -6.601986   -7.785306
  35 H     1.0000    0     1.008   10.700715   -4.757438   -9.601703
  36 H     1.0000    0     1.008    8.755063  -12.212994   -8.041027
  37 H     1.0000    0     1.008   11.702667  -11.081718   -6.855101
  38 H     1.0000    0     1.008   10.247244  -11.767463  -12.422298
  39 H     1.0000    0     1.008   12.478720  -13.611691  -10.680401
  40 H     1.0000    0     1.008   14.368261   -6.385273  -12.185642
  41 H     1.0000    0     1.008   11.376060   -7.460626  -13.323836

--------------------------------
INTERNAL COORDINATES (ANGSTROEM)
--------------------------------
 C      0   0   0     0.000000000000     0.00000000     0.00000000
 S      1   0   0     1.831207138748     0.00000000     0.00000000
 O      2   1   0     1.468761957648   102.58960965     0.00000000
 O      2   1   3     1.482317015648   100.53640233   120.37064374
 N      2   1   3     1.556159796129   106.43301262   242.22569186
 H      5   2   1     1.021877917245   106.50898188   275.68326739
 S      1   2   3     1.730944901864   121.31568518   274.92749984
 C      7   1   2     1.715412588310    92.33366009   178.43985087
 C      8   7   1     1.368623756985   110.34138716   359.83314488
 C      1   2   3     1.363539558006   126.91365963    92.98420031
 S      9   8   7     1.758723322351   121.55986907   175.80783044
 C     11   9   8     1.790433021728   103.50197443   256.64876981
 O     11   9   8     1.462993533879   109.34053694   143.32133055
 O     11   9   8     1.466508621412   108.16493311     9.93155936
 C     12  11   9     1.389303173798   119.12364203   269.96391895
 C     15  12  11     1.394433278240   118.81762235   178.65630036
 C     16  15  12     1.394969902306   120.73391787   359.83767735
 C     17  16  15     1.399963004088   119.37551202     0.65329568
 C     18  17  16     1.390025499795   120.51886514   359.29265144
 H      8   7   1     1.082152509601   122.86985698   179.09992858
 H     10   1   2     1.084548900506   122.62049824     1.44551800
 H     15  12  11     1.086008948433   119.72746895   357.86017471
 H     16  15  12     1.087432946669   119.60429979   179.75734196
 H     19  18  17     1.086193316811   121.51783143   179.66568758
 C     17  16  15     1.512006734388   120.78081575   181.33359153
 N     25  17  16     1.457455489401   112.46678721   228.25097631
 H     18  17  16     1.086801048358   118.98528959   178.60838553
 H     25  17  16     1.097685859536   109.20417553   109.13346799
 H     25  17  16     1.107601505896   109.48018465   352.36315100
 C     26  25  17     1.459423285165   111.76017823    65.61955309
 C     26  25  17     1.456589030349   111.35488051   188.51772818
 C     31  26  25     1.521850292657   109.76218833   178.53577943
 C     30  26  25     1.520516552270   109.72192894   181.10163714
 O     32  31  26     1.413922328030   111.17167094    58.02937868
 H     30  26  25     1.108427022893   110.73424839    60.38606893
 H     30  26  25     1.095004835232   109.15641182   301.46453512
 H     31  26  25     1.096293372736   108.96911600    58.34973521
 H     31  26  25     1.108443426457   111.20181563   299.30213156
 H     32  31  26     1.101597966365   109.35740711   296.73935712
 H     32  31  26     1.093054466152   110.83485609   176.41604418
 H     33  30  26     1.092617260341   110.82844480   183.92016868
 H     33  30  26     1.101325954771   109.43142013    63.57367423

---------------------------
INTERNAL COORDINATES (A.U.)
---------------------------
 C      0   0   0     0.000000000000     0.00000000     0.00000000
 S      1   0   0     3.460479986715     0.00000000     0.00000000
 O      2   1   0     2.775557855877   102.58960965     0.00000000
 O      2   1   3     2.801173203226   100.53640233   120.37064374
 N      2   1   3     2.940715835303   106.43301262   242.22569186
 H      5   2   1     1.931069405895   106.50898188   275.68326739
 S      1   2   3     3.271011817430   121.31568518   274.92749984
 C      7   1   2     3.241659998586    92.33366009   178.43985087
 C      8   7   1     2.586324081081   110.34138716   359.83314488
 C      1   2   3     2.576716337399   126.91365963    92.98420031
 S      9   8   7     3.323505424583   121.55986907   175.80783044
 C     11   9   8     3.383428072195   103.50197443   256.64876981
 O     11   9   8     2.764657114729   109.34053694   143.32133055
 O     11   9   8     2.771299667504   108.16493311     9.93155936
 C     12  11   9     2.625402515466   119.12364203   269.96391895
 C     15  12  11     2.635097007900   118.81762235   178.65630036
 C     16  15  12     2.636111080421   120.73391787   359.83767735
 C     17  16  15     2.645546675348   119.37551202     0.65329568
 C     18  17  16     2.626767513780   120.51886514   359.29265144
 H      8   7   1     2.044971878282   122.86985698   179.09992858
 H     10   1   2     2.049500400802   122.62049824     1.44551800
 H     15  12  11     2.052259491526   119.72746895   357.86017471
 H     16  15  12     2.054950458207   119.60429979   179.75734196
 H     19  18  17     2.052607897269   121.51783143   179.66568758
 C     17  16  15     2.857278640639   120.78081575   181.33359153
 N     25  17  16     2.754191727348   112.46678721   228.25097631
 H     18  17  16     2.053756343456   118.98528959   178.60838553
 H     25  17  16     2.074325655601   109.20417553   109.13346799
 H     25  17  16     2.093063511662   109.48018465   352.36315100
 C     26  25  17     2.757910322429   111.76017823    65.61955309
 C     26  25  17     2.752554357034   111.35488051   188.51772818
 C     31  26  25     2.875880269949   109.76218833   178.53577943
 C     30  26  25     2.873359865885   109.72192894   181.10163714
 O     32  31  26     2.671925974613   111.17167094    58.02937868
 H     30  26  25     2.094623512705   110.73424839    60.38606893
 H     30  26  25     2.069259253908   109.15641182   301.46453512
 H     31  26  25     2.071694236904   108.96911600    58.34973521
 H     31  26  25     2.094654510950   111.20181563   299.30213156
 H     32  31  26     2.081718466115   109.35740711   296.73935712
 H     32  31  26     2.065573590487   110.83485609   176.41604418
 H     33  30  26     2.064747391241   110.82844480   183.92016868
 H     33  30  26     2.081204438697   109.43142013    63.57367423

---------------------
BASIS SET INFORMATION
---------------------
There are 5 groups of distinct atoms

 Group   1 Type C   : 19s6p3d2f contracted to 5s4p3d2f pattern {88111/3111/111/11}
 Group   2 Type S   : 42s17p3d2f contracted to 6s5p3d2f pattern {131313111/77111/111/11}
 Group   3 Type O   : 19s6p3d2f contracted to 5s4p3d2f pattern {88111/3111/111/11}
 Group   4 Type N   : 19s6p3d2f contracted to 5s4p3d2f pattern {88111/3111/111/11}
 Group   5 Type H   : 6s3p2d contracted to 4s3p2d pattern {3111/111/11}

Atom   0C    basis set group =>   1
Atom   1S    basis set group =>   2
Atom   2O    basis set group =>   3
Atom   3O    basis set group =>   3
Atom   4N    basis set group =>   4
Atom   5H    basis set group =>   5
Atom   6S    basis set group =>   2
Atom   7C    basis set group =>   1
Atom   8C    basis set group =>   1
Atom   9C    basis set group =>   1
Atom  10S    basis set group =>   2
Atom  11C    basis set group =>   1
Atom  12O    basis set group =>   3
Atom  13O    basis set group =>   3
Atom  14C    basis set group =>   1
Atom  15C    basis set group =>   1
Atom  16C    basis set group =>   1
Atom  17C    basis set group =>   1
Atom  18C    basis set group =>   1
Atom  19H    basis set group =>   5
Atom  20H    basis set group =>   5
Atom  21H    basis set group =>   5
Atom  22H    basis set group =>   5
Atom  23H    basis set group =>   5
Atom  24C    basis set group =>   1
Atom  25N    basis set group =>   4
Atom  26H    basis set group =>   5
Atom  27H    basis set group =>   5
Atom  28H    basis set group =>   5
Atom  29C    basis set group =>   1
Atom  30C    basis set group =>   1
Atom  31C    basis set group =>   1
Atom  32C    basis set group =>   1
Atom  33O    basis set group =>   3
Atom  34H    basis set group =>   5
Atom  35H    basis set group =>   5
Atom  36H    basis set group =>   5
Atom  37H    basis set group =>   5
Atom  38H    basis set group =>   5
Atom  39H    basis set group =>   5
Atom  40H    basis set group =>   5
Atom  41H    basis set group =>   5
---------------------------------
AUXILIARY/J BASIS SET INFORMATION
---------------------------------
There are 5 groups of distinct atoms

 Group   1 Type C   : 12s5p4d2f1g contracted to 6s4p3d1f1g pattern {711111/2111/211/2/1}
 Group   2 Type S   : 14s5p5d2f1g contracted to 8s4p3d1f1g pattern {71111111/2111/311/2/1}
 Group   3 Type O   : 12s5p4d2f1g contracted to 6s4p3d1f1g pattern {711111/2111/211/2/1}
 Group   4 Type N   : 12s5p4d2f1g contracted to 6s4p3d1f1g pattern {711111/2111/211/2/1}
 Group   5 Type H   : 5s2p1d contracted to 3s1p1d pattern {311/2/1}

Atom   0C    basis set group =>   1
Atom   1S    basis set group =>   2
Atom   2O    basis set group =>   3
Atom   3O    basis set group =>   3
Atom   4N    basis set group =>   4
Atom   5H    basis set group =>   5
Atom   6S    basis set group =>   2
Atom   7C    basis set group =>   1
Atom   8C    basis set group =>   1
Atom   9C    basis set group =>   1
Atom  10S    basis set group =>   2
Atom  11C    basis set group =>   1
Atom  12O    basis set group =>   3
Atom  13O    basis set group =>   3
Atom  14C    basis set group =>   1
Atom  15C    basis set group =>   1
Atom  16C    basis set group =>   1
Atom  17C    basis set group =>   1
Atom  18C    basis set group =>   1
Atom  19H    basis set group =>   5
Atom  20H    basis set group =>   5
Atom  21H    basis set group =>   5
Atom  22H    basis set group =>   5
Atom  23H    basis set group =>   5
Atom  24C    basis set group =>   1
Atom  25N    basis set group =>   4
Atom  26H    basis set group =>   5
Atom  27H    basis set group =>   5
Atom  28H    basis set group =>   5
Atom  29C    basis set group =>   1
Atom  30C    basis set group =>   1
Atom  31C    basis set group =>   1
Atom  32C    basis set group =>   1
Atom  33O    basis set group =>   3
Atom  34H    basis set group =>   5
Atom  35H    basis set group =>   5
Atom  36H    basis set group =>   5
Atom  37H    basis set group =>   5
Atom  38H    basis set group =>   5
Atom  39H    basis set group =>   5
Atom  40H    basis set group =>   5
Atom  41H    basis set group =>   5
---------------------------------
AUXILIARY/C BASIS SET INFORMATION
---------------------------------
There are 5 groups of distinct atoms

 Group   1 Type C   : 9s7p6d4f2g contracted to 9s7p6d4f2g pattern {111111111/1111111/111111/1111/11}
 Group   2 Type S   : 11s9p8d6f3g contracted to 11s9p8d6f3g pattern {11111111111/111111111/11111111/111111/111}
 Group   3 Type O   : 9s7p6d4f2g contracted to 9s7p6d4f2g pattern {111111111/1111111/111111/1111/11}
 Group   4 Type N   : 9s7p6d4f2g contracted to 9s7p6d4f2g pattern {111111111/1111111/111111/1111/11}
 Group   5 Type H   : 5s4p3d2f contracted to 5s4p3d2f pattern {11111/1111/111/11}

Atom   0C    basis set group =>   1
Atom   1S    basis set group =>   2
Atom   2O    basis set group =>   3
Atom   3O    basis set group =>   3
Atom   4N    basis set group =>   4
Atom   5H    basis set group =>   5
Atom   6S    basis set group =>   2
Atom   7C    basis set group =>   1
Atom   8C    basis set group =>   1
Atom   9C    basis set group =>   1
Atom  10S    basis set group =>   2
Atom  11C    basis set group =>   1
Atom  12O    basis set group =>   3
Atom  13O    basis set group =>   3
Atom  14C    basis set group =>   1
Atom  15C    basis set group =>   1
Atom  16C    basis set group =>   1
Atom  17C    basis set group =>   1
Atom  18C    basis set group =>   1
Atom  19H    basis set group =>   5
Atom  20H    basis set group =>   5
Atom  21H    basis set group =>   5
Atom  22H    basis set group =>   5
Atom  23H    basis set group =>   5
Atom  24C    basis set group =>   1
Atom  25N    basis set group =>   4
Atom  26H    basis set group =>   5
Atom  27H    basis set group =>   5
Atom  28H    basis set group =>   5
Atom  29C    basis set group =>   1
Atom  30C    basis set group =>   1
Atom  31C    basis set group =>   1
Atom  32C    basis set group =>   1
Atom  33O    basis set group =>   3
Atom  34H    basis set group =>   5
Atom  35H    basis set group =>   5
Atom  36H    basis set group =>   5
Atom  37H    basis set group =>   5
Atom  38H    basis set group =>   5
Atom  39H    basis set group =>   5
Atom  40H    basis set group =>   5
Atom  41H    basis set group =>   5


           ************************************************************
           *        Program running with 8 parallel MPI-processes     *
           *              working on a common directory               *
           ************************************************************
------------------------------------------------------------------------------
                           ORCA GTO INTEGRAL CALCULATION
                           -- RI-GTO INTEGRALS CHOSEN --
------------------------------------------------------------------------------
------------------------------------------------------------------------------
                   ___                                                        
                  /   \      - P O W E R E D   B Y -                         
                 /     \                                                     
                 |  |  |   _    _      __       _____    __    __             
                 |  |  |  | |  | |    /  \     |  _  \  |  |  /  |          
                  \  \/   | |  | |   /    \    | | | |  |  | /  /          
                 / \  \   | |__| |  /  /\  \   | |_| |  |  |/  /          
                |  |  |   |  __  | /  /__\  \  |    /   |      \           
                |  |  |   | |  | | |   __   |  |    \   |  |\   \          
                \     /   | |  | | |  |  |  |  | |\  \  |  | \   \       
                 \___/    |_|  |_| |__|  |__|  |_| \__\ |__|  \__/        
                                                                              
                      - O R C A' S   B I G   F R I E N D -                    
                                      &                                       
                       - I N T E G R A L  F E E D E R -                       
                                                                              
 v1 FN, 2020, v2 2021                                                         
------------------------------------------------------------------------------


Reading SHARK input file A.20.avtz.SHARKINP.tmp ... ok
----------------------
SHARK INTEGRAL PACKAGE
----------------------

Number of atoms                             ...     42
Number of basis functions                   ...   1760
Number of shells                            ...    686
Maximum angular momentum                    ...      3
Integral batch strategy                     ... SHARK/LIBINT Hybrid
RI-J (if used) integral strategy            ... SPLIT-RIJ (Revised 2003 algorithm where possible)
Printlevel                                  ...      1
Contraction scheme used                     ... PARTIAL GENERAL contraction
Coulomb Range Separation                    ... NOT USED
Exchange Range Separation                   ... NOT USED
Finite Nucleus Model                        ... NOT USED
Auxiliary Coulomb fitting basis             ... AVAILABLE
   # of basis functions in Aux-J            ...   1418
   # of shells in Aux-J                     ...    466
   Maximum angular momentum in Aux-J        ...      4
Auxiliary J/K fitting basis                 ... NOT available
Auxiliary Correlation fitting basis         ... AVAILABLE
   # of basis functions in Aux-C            ...   3555
   # of shells in Aux-C                     ...    965
   Maximum angular momentum in Aux-C        ...      4
Auxiliary 'external' fitting basis          ... NOT available
Integral threshold                          ...     2.500000e-11
Primitive cut-off                           ...     2.500000e-12
Primitive pair pre-selection threshold      ...     2.500000e-12

Calculating pre-screening integrals         ... done (  0.2 sec) Dimension = 686
Calculating pre-screening integrals (ORCA)  ... done (  0.5 sec) Dimension = 509
Organizing shell pair data                  ... done (  1.4 sec)
Shell pair information
Total number of shell pairs                 ...    235641
Shell pairs after pre-screening             ...    136511
Total number of primitive shell pairs       ...    292347
Primitive shell pairs kept                  ...    154746
          la=0 lb=0:  30094 shell pairs
          la=1 lb=0:  36484 shell pairs
          la=1 lb=1:  10229 shell pairs
          la=2 lb=0:  22638 shell pairs
          la=2 lb=1:  12849 shell pairs
          la=2 lb=2:   4130 shell pairs
          la=3 lb=0:   9962 shell pairs
          la=3 lb=1:   5708 shell pairs
          la=3 lb=2:   3598 shell pairs
          la=3 lb=3:    819 shell pairs

Calculating one electron integrals          ... done (  0.3 sec)
Calculating RI/J V-Matrix + Cholesky decomp.... done (  0.2 sec)
Calculating RI/C V-Matrix + Cholesky decomp.... done (  0.7 sec)
Calculating Nuclear repulsion               ... done (  0.0 sec) ENN=   2673.884492607492 Eh

SHARK setup successfully completed in   4.7 seconds

Maximum memory used throughout the entire GTOINT-calculation: 181.6 MB


           ************************************************************
           *        Program running with 8 parallel MPI-processes     *
           *              working on a common directory               *
           ************************************************************
-------------------------------------------------------------------------------
                                 ORCA SCF
-------------------------------------------------------------------------------

------------
SCF SETTINGS
------------
Hamiltonian:
 Density Functional     Method          .... DFT(GTOs)
 Exchange Functional    Exchange        .... PBE
   PBE kappa parameter   XKappa         ....  0.804000
   PBE mue parameter    XMuePBE         ....  0.219520
 Correlation Functional Correlation     .... P86
 LDA part of GGA corr.  LDAOpt          .... VWN-5
 Gradients option       PostSCFGGA      .... off
 Hybrid DFT is turned on
   Fraction HF Exchange ScalHFX         ....  0.700000
   Scaling of DF-GGA-X  ScalDFX         ....  0.300000
   Scaling of DF-GGA-C  ScalDFC         ....  0.430000
   Scaling of DF-LDA-C  ScalLDAC        ....  0.430000
   Perturbative correction              ....  1.000000
   Density functional embedding theory  .... OFF
   NL short-range parameter             .... 14.200000
 RI-approximation to the Coulomb term is turned on
   Number of AuxJ basis functions       .... 1418
   RIJ-COSX (HFX calculated with COS-X)).... on


General Settings:
 Integral files         IntName         .... A.20.avtz
 Hartree-Fock type      HFTyp           .... RHF
 Total Charge           Charge          ....   -1
 Multiplicity           Mult            ....    1
 Number of Electrons    NEL             ....  210
 Basis Dimension        Dim             .... 1553
 Nuclear Repulsion      ENuc            ....   2673.8844926075 Eh

Convergence Acceleration:
 DIIS                   CNVDIIS         .... on
   Start iteration      DIISMaxIt       ....    12
   Startup error        DIISStart       ....  0.200000
   # of expansion vecs  DIISMaxEq       ....     5
   Bias factor          DIISBfac        ....   1.050
   Max. coefficient     DIISMaxC        ....  10.000
 Trust-Rad. Augm. Hess. CNVTRAH         .... auto
   Auto Start mean grad. ratio tolernc. ....  1.125000
   Auto Start start iteration           ....    20
   Auto Start num. interpolation iter.  ....    10
   Max. Number of Micro iterations      ....    16
   Max. Number of Macro iterations      .... Maxiter - #DIIS iter
   Number of Davidson start vectors     ....     2
   Converg. threshold I  (grad. norm)   ....   1.000e-05
   Converg. threshold II (energy diff.) ....   1.000e-08
   Grad. Scal. Fac. for Micro threshold ....   0.100
   Minimum threshold for Micro iter.    ....   0.010
   NR start threshold (gradient norm)   ....   0.001
   Initial trust radius                 ....   0.400
   Minimum AH scaling param. (alpha)    ....   1.000
   Maximum AH scaling param. (alpha)    .... 1000.000
   Orbital update algorithm             .... Taylor
   White noise on init. David. guess    .... on
   Maximum white noise                  ....   0.010
   Quad. conv. algorithm                .... NR
 SOSCF                  CNVSOSCF        .... on
   Start iteration      SOSCFMaxIt      ....   150
   Startup grad/error   SOSCFStart      ....  0.003300
 Level Shifting         CNVShift        .... on
   Level shift para.    LevelShift      ....    0.2500
   Turn off err/grad.   ShiftErr        ....    0.0010
 Zerner damping         CNVZerner       .... off
 Static damping         CNVDamp         .... on
   Fraction old density DampFac         ....    0.7000
   Max. Damping (<1)    DampMax         ....    0.9800
   Min. Damping (>=0)   DampMin         ....    0.0000
   Turn off err/grad.   DampErr         ....    0.1000
 Fernandez-Rico         CNVRico         .... off

SCF Procedure:
 Maximum # iterations   MaxIter         ....   125
 SCF integral mode      SCFMode         .... Direct
   Integral package                     .... SHARK and LIBINT hybrid scheme
 Reset frequency        DirectResetFreq ....    20
 Integral Threshold     Thresh          ....  2.500e-11 Eh
 Primitive CutOff       TCut            ....  2.500e-12 Eh

Convergence Tolerance:
 Convergence Check Mode ConvCheckMode   .... Total+1el-Energy
 Convergence forced     ConvForced      .... 0
 Energy Change          TolE            ....  1.000e-08 Eh
 1-El. energy change                    ....  1.000e-05 Eh
 Orbital Gradient       TolG            ....  1.000e-05
 Orbital Rotation angle TolX            ....  1.000e-05
 DIIS Error             TolErr          ....  5.000e-07


Diagonalization of the overlap matrix:
Smallest eigenvalue                        ... 2.699e-07
Time for diagonalization                   ...    0.341 sec
Threshold for overlap eigenvalues          ... 1.000e-08
Number of eigenvalues below threshold      ... 0
Time for construction of square roots      ...    0.524 sec
Total time needed                          ...    0.876 sec

Time for model grid setup =    0.581 sec

------------------------------
INITIAL GUESS: MODEL POTENTIAL
------------------------------
Loading Hartree-Fock densities                     ... done
Calculating cut-offs                               ... done
Initializing the effective Hamiltonian             ... done
Setting up the integral package (SHARK)            ... done
Starting the Coulomb interaction                   ... done (   2.3 sec)
Reading the grid                                   ... done
Mapping shells                                     ... done
Starting the XC term evaluation                    ... done (   1.9 sec)
  promolecular density results
     # of electrons  =    208.986012770
     EX              =   -210.512400869
     EC              =     -0.080465639
     EX+EC           =   -210.592866508
Transforming the Hamiltonian                       ... done (   0.2 sec)
Diagonalizing the Hamiltonian                      ... done (   0.4 sec)
Back transforming the eigenvectors                 ... done (   0.1 sec)
Now organizing SCF variables                       ... done
                      ------------------
                      INITIAL GUESS DONE (   5.5 sec)
                      ------------------
-------------------
DFT GRID GENERATION
-------------------

General Integration Accuracy     IntAcc      ... 4.388
Radial Grid Type                 RadialGrid  ... OptM3 with GC (2021)
Angular Grid (max. ang.)         AngularGrid ... 4 (Lebedev-302)
Angular grid pruning method      GridPruning ... 4 (adaptive)
Weight generation scheme         WeightScheme... Becke
Basis function cutoff            BFCut       ... 1.0000e-11
Integration weight cutoff        WCut        ... 1.0000e-14
Angular grids for H and He will be reduced by one unit
Partially contracted basis set               ... off
Rotationally invariant grid construction     ... off

Total number of grid points                  ...   216665
Total number of batches                      ...     3407
Average number of points per batch           ...       63
Average number of grid points per atom       ...     5159
Time for grid setup =    2.118 sec

--------------------
COSX GRID GENERATION
--------------------

GRIDX 1
-------
General Integration Accuracy     IntAcc      ... 3.816
Radial Grid Type                 RadialGrid  ... OptM3 with GC (2021)
Angular Grid (max. ang.)         AngularGrid ... 1 (Lebedev-50)
Angular grid pruning method      GridPruning ... 4 (adaptive)
Weight generation scheme         WeightScheme... Becke
Basis function cutoff            BFCut       ... 1.0000e-11
Integration weight cutoff        WCut        ... 1.0000e-14
Angular grids for H and He will be reduced by one unit
Partially contracted basis set               ... on
Rotationally invariant grid construction     ... off

Total number of grid points                  ...    26844
Total number of batches                      ...      441
Average number of points per batch           ...       60
Average number of grid points per atom       ...      639
UseSFitting                                  ... on

GRIDX 2
-------
General Integration Accuracy     IntAcc      ... 4.020
Radial Grid Type                 RadialGrid  ... OptM3 with GC (2021)
Angular Grid (max. ang.)         AngularGrid ... 2 (Lebedev-110)
Angular grid pruning method      GridPruning ... 4 (adaptive)
Weight generation scheme         WeightScheme... Becke
Basis function cutoff            BFCut       ... 1.0000e-11
Integration weight cutoff        WCut        ... 1.0000e-14
Angular grids for H and He will be reduced by one unit
Partially contracted basis set               ... on
Rotationally invariant grid construction     ... off

Total number of grid points                  ...    64398
Total number of batches                      ...     1027
Average number of points per batch           ...       62
Average number of grid points per atom       ...     1533
UseSFitting                                  ... on

GRIDX 3
-------
General Integration Accuracy     IntAcc      ... 4.338
Radial Grid Type                 RadialGrid  ... OptM3 with GC (2021)
Angular Grid (max. ang.)         AngularGrid ... 3 (Lebedev-194)
Angular grid pruning method      GridPruning ... 4 (adaptive)
Weight generation scheme         WeightScheme... Becke
Basis function cutoff            BFCut       ... 1.0000e-11
Integration weight cutoff        WCut        ... 1.0000e-14
Angular grids for H and He will be reduced by one unit
Partially contracted basis set               ... on
Rotationally invariant grid construction     ... off

Total number of grid points                  ...   143487
Total number of batches                      ...     2263
Average number of points per batch           ...       63
Average number of grid points per atom       ...     3416
UseSFitting                                  ... on

Time for X-Grid setup             =    6.538 sec

 re-compute Schwartz prescreening matrix in partically contracted basis (1) ...done (   0.190 sec)
--------------
SCF ITERATIONS
--------------
ITER       Energy         Delta-E        Max-DP      RMS-DP      [F,P]     Damp
               ***  Starting incremental Fock matrix formation  ***
  0  -2256.4045996897   0.000000000000 0.48647481  0.00337242  0.3251125 0.7000
  1  -2256.7696782192  -0.365078529504 0.48341580  0.00303190  0.1749567 0.7000
                               ***Turning on DIIS***
  2  -2256.9480075667  -0.178329347528 1.64217783  0.00829736  0.0774463 0.0000
  3  -2257.2495756469  -0.301568080213 0.68703282  0.00223726  0.0777943 0.0000
  4  -2257.2942712840  -0.044695637050 0.17694726  0.00057669  0.0073147 0.0000
  5  -2257.2956393085  -0.001368024483 0.04250255  0.00024707  0.0061812 0.0000
                      *** Initiating the SOSCF procedure ***
                           *** Shutting down DIIS ***
                      *** Re-Reading the Fockian *** 
                      *** Removing any level shift *** 
ITER      Energy       Delta-E        Grad      Rot      Max-DP    RMS-DP
  6  -2257.29601737  -0.0003780642  0.000784  0.000784  0.050585  0.000241
               *** Restarting incremental Fock matrix formation ***
  7  -2257.29603973  -0.0000223554  0.000684  0.001843  1.637943  0.006050
  8  -2257.29609721  -0.0000574824  0.000174  0.000820  0.186134  0.001199
  9  -2257.29610232  -0.0000051119  0.000269  0.000554  0.145426  0.000751
 10  -2257.29610709  -0.0000047711  0.000020  0.000047  0.053903  0.000333
 11  -2257.29610744  -0.0000003503  0.000016  0.000055  0.041345  0.000210
 12  -2257.29610754  -0.0000000918  0.000005  0.000008  0.059291  0.000255
                  ***Gradient check signals convergence***
              ***Rediagonalizing the Fockian in SOSCF/NRSCF***

               *****************************************************
               *                     SUCCESS                       *
               *           SCF CONVERGED AFTER  13 CYCLES          *
               *****************************************************

Old exchange energy                            =   -149.734167517 Eh
New exchange energy                            =   -149.733845812 Eh
Exchange energy change after final integration =      0.000321704 Eh
Total energy after final integration           =  -2257.295785771 Eh
Final COS-X integration done in                =   126.201 sec

----------------
TOTAL SCF ENERGY
----------------

Total Energy       :        -2257.29578577 Eh          -61424.14107 eV

Components:
Nuclear Repulsion  :         2673.88449261 Eh           72760.09610 eV
Electronic Energy  :        -4931.18027838 Eh         -134184.23717 eV
One Electron Energy:        -8443.54295712 Eh         -229760.48466 eV
Two Electron Energy:         3512.36267874 Eh           95576.24749 eV
Max COSX asymmetry :            0.00003026 Eh               0.00082 eV

Virial components:
Potential Energy   :        -4508.88369003 Eh         -122692.96280 eV
Kinetic Energy     :         2251.58790426 Eh           61268.82172 eV
Virial Ratio       :            2.00253505


DFT components:
N(Alpha)           :      105.000057987869 electrons
N(Beta)            :      105.000057987869 electrons
N(Total)           :      210.000115975738 electrons
E(X)               :      -63.911974474438 Eh       
E(C)               :       -3.537419729845 Eh       
E(XC)              :      -67.449394204283 Eh       
DFET-embed. en.    :        0.000000000000 Eh       

---------------
SCF CONVERGENCE
---------------

  Last Energy change         ...    5.9742e-08  Tolerance :   1.0000e-08
  Last MAX-Density change    ...    6.6613e-15  Tolerance :   1.0000e-07
  Last RMS-Density change    ...    2.2299e-17  Tolerance :   5.0000e-09
  Last Orbital Gradient      ...    2.3783e-06  Tolerance :   1.0000e-05
  Last Orbital Rotation      ...    6.9087e-06  Tolerance :   1.0000e-05

             **** THE GBW FILE WAS UPDATED (A.20.avtz.gbw) ****
             **** DENSITY A.20.avtz.scfp WAS UPDATED ****
             **** ENERGY FILE WAS UPDATED (A.20.avtz.en.tmp) ****
             **** THE GBW FILE WAS UPDATED (A.20.avtz.gbw) ****
             **** DENSITY A.20.avtz.scfp WAS UPDATED ****
----------------
ORBITAL ENERGIES
----------------

  NO   OCC          E(Eh)            E(eV) 
   0   2.0000     -90.934003     -2474.4400 
   1   2.0000     -90.864212     -2472.5409 
   2   2.0000     -90.744923     -2469.2949 
   3   2.0000     -19.979606      -543.6727 
   4   2.0000     -19.925148      -542.1908 
   5   2.0000     -19.923372      -542.1425 
   6   2.0000     -19.841665      -539.9192 
   7   2.0000     -19.839264      -539.8538 
   8   2.0000     -15.045603      -409.4117 
   9   2.0000     -14.901809      -405.4988 
  10   2.0000     -10.831828      -294.7490 
  11   2.0000     -10.828950      -294.6707 
  12   2.0000     -10.812659      -294.2274 
  13   2.0000     -10.810088      -294.1575 
  14   2.0000     -10.804086      -293.9941 
  15   2.0000     -10.798166      -293.8330 
  16   2.0000     -10.794948      -293.7455 
  17   2.0000     -10.788329      -293.5654 
  18   2.0000     -10.787768      -293.5501 
  19   2.0000     -10.787677      -293.5476 
  20   2.0000     -10.783051      -293.4217 
  21   2.0000     -10.780845      -293.3617 
  22   2.0000     -10.776410      -293.2410 
  23   2.0000     -10.767849      -293.0081 
  24   2.0000     -10.745930      -292.4116 
  25   2.0000      -8.680378      -236.2051 
  26   2.0000      -8.605237      -234.1604 
  27   2.0000      -8.520260      -231.8481 
  28   2.0000      -6.465551      -175.9366 
  29   2.0000      -6.464906      -175.9190 
  30   2.0000      -6.463869      -175.8908 
  31   2.0000      -6.392109      -173.9381 
  32   2.0000      -6.389569      -173.8690 
  33   2.0000      -6.388541      -173.8410 
  34   2.0000      -6.302681      -171.5047 
  35   2.0000      -6.300060      -171.4334 
  36   2.0000      -6.299990      -171.4314 
  37   2.0000      -1.232497       -33.5379 
  38   2.0000      -1.215858       -33.0852 
  39   2.0000      -1.153144       -31.3787 
  40   2.0000      -1.124879       -30.6095 
  41   2.0000      -1.085088       -29.5267 
  42   2.0000      -1.035374       -28.1740 
  43   2.0000      -1.000944       -27.2371 
  44   2.0000      -0.984798       -26.7977 
  45   2.0000      -0.907666       -24.6988 
  46   2.0000      -0.898994       -24.4629 
  47   2.0000      -0.897909       -24.4333 
  48   2.0000      -0.869035       -23.6477 
  49   2.0000      -0.846772       -23.0418 
  50   2.0000      -0.823946       -22.4207 
  51   2.0000      -0.807024       -21.9603 
  52   2.0000      -0.761096       -20.7105 
  53   2.0000      -0.756300       -20.5800 
  54   2.0000      -0.717090       -19.5130 
  55   2.0000      -0.703140       -19.1334 
  56   2.0000      -0.663216       -18.0470 
  57   2.0000      -0.653413       -17.7803 
  58   2.0000      -0.639553       -17.4031 
  59   2.0000      -0.603895       -16.4328 
  60   2.0000      -0.580274       -15.7900 
  61   2.0000      -0.568554       -15.4711 
  62   2.0000      -0.558805       -15.2059 
  63   2.0000      -0.544485       -14.8162 
  64   2.0000      -0.541616       -14.7381 
  65   2.0000      -0.537401       -14.6234 
  66   2.0000      -0.533447       -14.5158 
  67   2.0000      -0.527507       -14.3542 
  68   2.0000      -0.512896       -13.9566 
  69   2.0000      -0.504357       -13.7243 
  70   2.0000      -0.483552       -13.1581 
  71   2.0000      -0.479583       -13.0501 
  72   2.0000      -0.476005       -12.9528 
  73   2.0000      -0.471097       -12.8192 
  74   2.0000      -0.470193       -12.7946 
  75   2.0000      -0.452485       -12.3127 
  76   2.0000      -0.440388       -11.9836 
  77   2.0000      -0.436073       -11.8661 
  78   2.0000      -0.421132       -11.4596 
  79   2.0000      -0.417056       -11.3487 
  80   2.0000      -0.412739       -11.2312 
  81   2.0000      -0.408173       -11.1070 
  82   2.0000      -0.405998       -11.0478 
  83   2.0000      -0.402351       -10.9485 
  84   2.0000      -0.388851       -10.5812 
  85   2.0000      -0.387276       -10.5383 
  86   2.0000      -0.379781       -10.3344 
  87   2.0000      -0.362524        -9.8648 
  88   2.0000      -0.358410        -9.7528 
  89   2.0000      -0.350070        -9.5259 
  90   2.0000      -0.340461        -9.2644 
  91   2.0000      -0.324603        -8.8329 
  92   2.0000      -0.317672        -8.6443 
  93   2.0000      -0.308273        -8.3885 
  94   2.0000      -0.302238        -8.2243 
  95   2.0000      -0.277795        -7.5592 
  96   2.0000      -0.273154        -7.4329 
  97   2.0000      -0.268081        -7.2949 
  98   2.0000      -0.260826        -7.0974 
  99   2.0000      -0.258157        -7.0248 
 100   2.0000      -0.239530        -6.5179 
 101   2.0000      -0.225483        -6.1357 
 102   2.0000      -0.210667        -5.7325 
 103   2.0000      -0.205860        -5.6017 
 104   2.0000      -0.180409        -4.9092 
 105   0.0000       0.060490         1.6460 
 106   0.0000       0.070476         1.9178 
 107   0.0000       0.071073         1.9340 
 108   0.0000       0.077565         2.1107 
 109   0.0000       0.087167         2.3719 
 110   0.0000       0.090062         2.4507 
 111   0.0000       0.091682         2.4948 
 112   0.0000       0.093699         2.5497 
 113   0.0000       0.097532         2.6540 
 114   0.0000       0.103115         2.8059 
 115   0.0000       0.107520         2.9258 
 116   0.0000       0.113074         3.0769 
 117   0.0000       0.114233         3.1084 
 118   0.0000       0.116240         3.1630 
 119   0.0000       0.116822         3.1789 
 120   0.0000       0.123552         3.3620 
 121   0.0000       0.128688         3.5018 
 122   0.0000       0.137458         3.7404 
 123   0.0000       0.140382         3.8200 
 124   0.0000       0.141404         3.8478 
 125   0.0000       0.142501         3.8777 
 126   0.0000       0.145801         3.9675 
 127   0.0000       0.147615         4.0168 
 128   0.0000       0.149025         4.0552 
 129   0.0000       0.151062         4.1106 
 130   0.0000       0.152028         4.1369 
 131   0.0000       0.153273         4.1708 
 132   0.0000       0.155266         4.2250 
 133   0.0000       0.161743         4.4012 
 134   0.0000       0.163538         4.4501 
 135   0.0000       0.164989         4.4896 
 136   0.0000       0.167140         4.5481 
 137   0.0000       0.170232         4.6322 
 138   0.0000       0.171143         4.6570 
 139   0.0000       0.174071         4.7367 
 140   0.0000       0.176536         4.8038 
 141   0.0000       0.179891         4.8951 
 142   0.0000       0.180909         4.9228 
 143   0.0000       0.181658         4.9432 
 144   0.0000       0.186556         5.0765 
 145   0.0000       0.187437         5.1004 
 146   0.0000       0.189176         5.1477 
 147   0.0000       0.190018         5.1707 
 148   0.0000       0.193598         5.2681 
 149   0.0000       0.197824         5.3831 
 150   0.0000       0.199052         5.4165 
 151   0.0000       0.201402         5.4804 
 152   0.0000       0.205620         5.5952 
 153   0.0000       0.207685         5.6514 
 154   0.0000       0.208696         5.6789 
 155   0.0000       0.211190         5.7468 
 156   0.0000       0.212108         5.7717 
 157   0.0000       0.213939         5.8216 
 158   0.0000       0.215366         5.8604 
 159   0.0000       0.217321         5.9136 
 160   0.0000       0.221549         6.0287 
 161   0.0000       0.223950         6.0940 
 162   0.0000       0.226006         6.1499 
 163   0.0000       0.229018         6.2319 
 164   0.0000       0.235451         6.4069 
 165   0.0000       0.236647         6.4395 
 166   0.0000       0.241312         6.5664 
 167   0.0000       0.243343         6.6217 
 168   0.0000       0.244933         6.6650 
 169   0.0000       0.246874         6.7178 
 170   0.0000       0.252043         6.8584 
 171   0.0000       0.253380         6.8948 
 172   0.0000       0.256299         6.9742 
 173   0.0000       0.257756         7.0139 
 174   0.0000       0.260589         7.0910 
 175   0.0000       0.263156         7.1608 
 176   0.0000       0.265649         7.2287 
 177   0.0000       0.266616         7.2550 
 178   0.0000       0.271224         7.3804 
 179   0.0000       0.271709         7.3936 
 180   0.0000       0.274384         7.4664 
 181   0.0000       0.274996         7.4830 
 182   0.0000       0.276451         7.5226 
 183   0.0000       0.278779         7.5860 
 184   0.0000       0.282607         7.6901 
 185   0.0000       0.284529         7.7424 
 186   0.0000       0.286695         7.8014 
 187   0.0000       0.286859         7.8058 
 188   0.0000       0.288927         7.8621 
 189   0.0000       0.292820         7.9680 
 190   0.0000       0.294683         8.0187 
 191   0.0000       0.295740         8.0475 
 192   0.0000       0.297222         8.0878 
 193   0.0000       0.299230         8.1425 
 194   0.0000       0.300512         8.1773 
 195   0.0000       0.307110         8.3569 
 196   0.0000       0.307522         8.3681 
 197   0.0000       0.307831         8.3765 
 198   0.0000       0.311745         8.4830 
 199   0.0000       0.314056         8.5459 
 200   0.0000       0.316351         8.6083 
 201   0.0000       0.317677         8.6444 
 202   0.0000       0.319025         8.6811 
 203   0.0000       0.321577         8.7506 
 204   0.0000       0.325130         8.8472 
 205   0.0000       0.325527         8.8580 
 206   0.0000       0.326210         8.8766 
 207   0.0000       0.328344         8.9347 
 208   0.0000       0.329485         8.9657 
 209   0.0000       0.330778         9.0009 
 210   0.0000       0.334818         9.1109 
 211   0.0000       0.335971         9.1422 
 212   0.0000       0.337525         9.1845 
 213   0.0000       0.339350         9.2342 
 214   0.0000       0.342500         9.3199 
 215   0.0000       0.346973         9.4416 
 216   0.0000       0.347530         9.4568 
 217   0.0000       0.348498         9.4831 
 218   0.0000       0.352099         9.5811 
 219   0.0000       0.352860         9.6018 
 220   0.0000       0.356528         9.7016 
 221   0.0000       0.360865         9.8196 
 222   0.0000       0.361583         9.8392 
 223   0.0000       0.364001         9.9050 
 224   0.0000       0.365841         9.9550 
 225   0.0000       0.368895        10.0381 
 226   0.0000       0.370236        10.0746 
 227   0.0000       0.372519        10.1368 
 228   0.0000       0.372960        10.1488 
 229   0.0000       0.377547        10.2736 
 230   0.0000       0.378991        10.3129 
 231   0.0000       0.381600        10.3839 
 232   0.0000       0.383552        10.4370 
 233   0.0000       0.385923        10.5015 
 234   0.0000       0.389031        10.5861 
 235   0.0000       0.389969        10.6116 
 236   0.0000       0.392462        10.6794 
 237   0.0000       0.393752        10.7145 
 238   0.0000       0.394533        10.7358 
 239   0.0000       0.395396        10.7593 
 240   0.0000       0.398778        10.8513 
 241   0.0000       0.400860        10.9080 
 242   0.0000       0.401794        10.9334 
 243   0.0000       0.405160        11.0250 
 244   0.0000       0.407558        11.0902 
 245   0.0000       0.407727        11.0948 
 246   0.0000       0.409667        11.1476 
 247   0.0000       0.410865        11.1802 
 248   0.0000       0.415423        11.3042 
 249   0.0000       0.417539        11.3618 
 250   0.0000       0.422072        11.4852 
 251   0.0000       0.423307        11.5188 
 252   0.0000       0.424305        11.5459 
 253   0.0000       0.425086        11.5672 
 254   0.0000       0.429294        11.6817 
 255   0.0000       0.429886        11.6978 
 256   0.0000       0.431751        11.7485 
 257   0.0000       0.435983        11.8637 
 258   0.0000       0.436271        11.8715 
 259   0.0000       0.438415        11.9299 
 260   0.0000       0.442471        12.0402 
 261   0.0000       0.447428        12.1751 
 262   0.0000       0.448245        12.1974 
 263   0.0000       0.449957        12.2440 
 264   0.0000       0.453405        12.3378 
 265   0.0000       0.454956        12.3800 
 266   0.0000       0.457058        12.4372 
 267   0.0000       0.459905        12.5146 
 268   0.0000       0.462660        12.5896 
 269   0.0000       0.463497        12.6124 
 270   0.0000       0.466771        12.7015 
 271   0.0000       0.468463        12.7475 
 272   0.0000       0.471443        12.8286 
 273   0.0000       0.472658        12.8617 
 274   0.0000       0.475038        12.9264 
 275   0.0000       0.476575        12.9683 
 276   0.0000       0.481736        13.1087 
 277   0.0000       0.483017        13.1436 
 278   0.0000       0.484645        13.1879 
 279   0.0000       0.486888        13.2489 
 280   0.0000       0.490298        13.3417 
 281   0.0000       0.491424        13.3723 
 282   0.0000       0.494875        13.4662 
 283   0.0000       0.499039        13.5796 
 284   0.0000       0.501302        13.6411 
 285   0.0000       0.502616        13.6769 
 286   0.0000       0.504263        13.7217 
 287   0.0000       0.507347        13.8056 
 288   0.0000       0.509068        13.8524 
 289   0.0000       0.511042        13.9062 
 290   0.0000       0.512841        13.9551 
 291   0.0000       0.514881        14.0106 
 292   0.0000       0.518307        14.1038 
 293   0.0000       0.519835        14.1454 
 294   0.0000       0.523404        14.2425 
 295   0.0000       0.526255        14.3201 
 296   0.0000       0.526447        14.3253 
 297   0.0000       0.527784        14.3617 
 298   0.0000       0.530069        14.4239 
 299   0.0000       0.533066        14.5055 
 300   0.0000       0.535748        14.5785 
 301   0.0000       0.536550        14.6003 
 302   0.0000       0.537563        14.6278 
 303   0.0000       0.541679        14.7398 
 304   0.0000       0.542272        14.7560 
 305   0.0000       0.546868        14.8810 
 306   0.0000       0.550859        14.9896 
 307   0.0000       0.554832        15.0978 
 308   0.0000       0.555239        15.1088 
 309   0.0000       0.555684        15.1209 
 310   0.0000       0.558476        15.1969 
 311   0.0000       0.560760        15.2591 
 312   0.0000       0.564196        15.3526 
 313   0.0000       0.564774        15.3683 
 314   0.0000       0.568214        15.4619 
 315   0.0000       0.569528        15.4976 
 316   0.0000       0.573224        15.5982 
 317   0.0000       0.574668        15.6375 
 318   0.0000       0.575209        15.6522 
 319   0.0000       0.577288        15.7088 
 320   0.0000       0.578136        15.7319 
 321   0.0000       0.579076        15.7575 
 322   0.0000       0.582763        15.8578 
 323   0.0000       0.584079        15.8936 
 324   0.0000       0.587231        15.9794 
 325   0.0000       0.591489        16.0952 
 326   0.0000       0.592491        16.1225 
 327   0.0000       0.595019        16.1913 
 328   0.0000       0.597542        16.2600 
 329   0.0000       0.598061        16.2741 
 330   0.0000       0.600280        16.3345 
 331   0.0000       0.600728        16.3466 
 332   0.0000       0.604998        16.4628 
 333   0.0000       0.605859        16.4863 
 334   0.0000       0.608390        16.5551 
 335   0.0000       0.609966        16.5980 
 336   0.0000       0.611095        16.6287 
 337   0.0000       0.618086        16.8190 
 338   0.0000       0.619430        16.8555 
 339   0.0000       0.621779        16.9195 
 340   0.0000       0.625049        17.0085 
 341   0.0000       0.625260        17.0142 
 342   0.0000       0.627385        17.0720 
 343   0.0000       0.631201        17.1759 
 344   0.0000       0.632672        17.2159 
 345   0.0000       0.636256        17.3134 
 346   0.0000       0.638922        17.3859 
 347   0.0000       0.641812        17.4646 
 348   0.0000       0.642722        17.4894 
 349   0.0000       0.645487        17.5646 
 350   0.0000       0.647940        17.6314 
 351   0.0000       0.650236        17.6938 
 352   0.0000       0.652715        17.7613 
 353   0.0000       0.653528        17.7834 
 354   0.0000       0.657605        17.8943 
 355   0.0000       0.663477        18.0541 
 356   0.0000       0.665740        18.1157 
 357   0.0000       0.666928        18.1480 
 358   0.0000       0.668614        18.1939 
 359   0.0000       0.670387        18.2422 
 360   0.0000       0.673843        18.3362 
 361   0.0000       0.674317        18.3491 
 362   0.0000       0.676802        18.4167 
 363   0.0000       0.678440        18.4613 
 364   0.0000       0.679551        18.4915 
 365   0.0000       0.682930        18.5835 
 366   0.0000       0.687222        18.7003 
 367   0.0000       0.690287        18.7837 
 368   0.0000       0.693360        18.8673 
 369   0.0000       0.695904        18.9365 
 370   0.0000       0.699017        19.0212 
 371   0.0000       0.701591        19.0913 
 372   0.0000       0.702852        19.1256 
 373   0.0000       0.704660        19.1748 
 374   0.0000       0.711092        19.3498 
 375   0.0000       0.716684        19.5020 
 376   0.0000       0.719147        19.5690 
 377   0.0000       0.720541        19.6069 
 378   0.0000       0.723354        19.6835 
 379   0.0000       0.724842        19.7239 
 380   0.0000       0.727105        19.7855 
 381   0.0000       0.735244        20.0070 
 382   0.0000       0.738094        20.0846 
 383   0.0000       0.740917        20.1614 
 384   0.0000       0.742914        20.2157 
 385   0.0000       0.745136        20.2762 
 386   0.0000       0.747997        20.3540 
 387   0.0000       0.751013        20.4361 
 388   0.0000       0.754778        20.5385 
 389   0.0000       0.758320        20.6349 
 390   0.0000       0.760678        20.6991 
 391   0.0000       0.762100        20.7378 
 392   0.0000       0.765232        20.8230 
 393   0.0000       0.769969        20.9519 
 394   0.0000       0.772309        21.0156 
 395   0.0000       0.773583        21.0503 
 396   0.0000       0.780217        21.2308 
 397   0.0000       0.782107        21.2822 
 398   0.0000       0.786587        21.4041 
 399   0.0000       0.789008        21.4700 
 400   0.0000       0.792359        21.5612 
 401   0.0000       0.793362        21.5885 
 402   0.0000       0.798224        21.7208 
 403   0.0000       0.801868        21.8199 
 404   0.0000       0.806356        21.9421 
 405   0.0000       0.810914        22.0661 
 406   0.0000       0.812930        22.1210 
 407   0.0000       0.816957        22.2305 
 408   0.0000       0.820593        22.3295 
 409   0.0000       0.822435        22.3796 
 410   0.0000       0.823885        22.4190 
 411   0.0000       0.828438        22.5430 
 412   0.0000       0.831462        22.6252 
 413   0.0000       0.834910        22.7191 
 414   0.0000       0.835872        22.7452 
 415   0.0000       0.841211        22.8905 
 416   0.0000       0.844397        22.9772 
 417   0.0000       0.845926        23.0188 
 418   0.0000       0.849385        23.1130 
 419   0.0000       0.851908        23.1816 
 420   0.0000       0.853103        23.2141 
 421   0.0000       0.855661        23.2837 
 422   0.0000       0.858246        23.3541 
 423   0.0000       0.862467        23.4689 
 424   0.0000       0.864184        23.5157 
 425   0.0000       0.868578        23.6352 
 426   0.0000       0.869425        23.6583 
 427   0.0000       0.874421        23.7942 
 428   0.0000       0.876611        23.8538 
 429   0.0000       0.879146        23.9228 
 430   0.0000       0.882806        24.0224 
 431   0.0000       0.886569        24.1248 
 432   0.0000       0.889354        24.2005 
 433   0.0000       0.889815        24.2131 
 434   0.0000       0.894920        24.3520 
 435   0.0000       0.895743        24.3744 
 436   0.0000       0.896230        24.3877 
 437   0.0000       0.897721        24.4282 
 438   0.0000       0.903208        24.5776 
 439   0.0000       0.906057        24.6551 
 440   0.0000       0.910555        24.7775 
 441   0.0000       0.911150        24.7937 
 442   0.0000       0.912937        24.8423 
 443   0.0000       0.915311        24.9069 
 444   0.0000       0.918314        24.9886 
 445   0.0000       0.920287        25.0423 
 446   0.0000       0.927017        25.2254 
 447   0.0000       0.930894        25.3309 
 448   0.0000       0.933876        25.4121 
 449   0.0000       0.934493        25.4288 
 450   0.0000       0.937324        25.5059 
 451   0.0000       0.941591        25.6220 
 452   0.0000       0.944529        25.7019 
 453   0.0000       0.946018        25.7425 
 454   0.0000       0.948143        25.8003 
 455   0.0000       0.950812        25.8729 
 456   0.0000       0.955395        25.9976 
 457   0.0000       0.956418        26.0255 
 458   0.0000       0.958788        26.0900 
 459   0.0000       0.962104        26.1802 
 460   0.0000       0.970112        26.3981 
 461   0.0000       0.971596        26.4385 
 462   0.0000       0.974191        26.5091 
 463   0.0000       0.976065        26.5601 
 464   0.0000       0.981710        26.7137 
 465   0.0000       0.983725        26.7685 
 466   0.0000       0.985891        26.8275 
 467   0.0000       0.987981        26.8843 
 468   0.0000       0.990996        26.9664 
 469   0.0000       0.993023        27.0215 
 470   0.0000       0.993956        27.0469 
 471   0.0000       0.997059        27.1313 
 472   0.0000       0.998179        27.1618 
 473   0.0000       1.000127        27.2148 
 474   0.0000       1.001204        27.2442 
 475   0.0000       1.005585        27.3634 
 476   0.0000       1.009483        27.4694 
 477   0.0000       1.013172        27.5698 
 478   0.0000       1.014749        27.6127 
 479   0.0000       1.018973        27.7277 
 480   0.0000       1.021620        27.7997 
 481   0.0000       1.023614        27.8540 
 482   0.0000       1.025747        27.9120 
 483   0.0000       1.032486        28.0954 
 484   0.0000       1.034396        28.1473 
 485   0.0000       1.038344        28.2548 
 486   0.0000       1.039063        28.2743 
 487   0.0000       1.042621        28.3712 
 488   0.0000       1.043065        28.3833 
 489   0.0000       1.045114        28.4390 
 490   0.0000       1.051363        28.6090 
 491   0.0000       1.052057        28.6279 
 492   0.0000       1.054233        28.6871 
 493   0.0000       1.058390        28.8003 
 494   0.0000       1.060479        28.8571 
 495   0.0000       1.061436        28.8831 
 496   0.0000       1.063131        28.9293 
 497   0.0000       1.063907        28.9504 
 498   0.0000       1.065604        28.9966 
 499   0.0000       1.070245        29.1229 
 500   0.0000       1.071504        29.1571 
 501   0.0000       1.073131        29.2014 
 502   0.0000       1.080754        29.4088 
 503   0.0000       1.082017        29.4432 
 504   0.0000       1.084542        29.5119 
 505   0.0000       1.088149        29.6100 
 506   0.0000       1.092418        29.7262 
 507   0.0000       1.093538        29.7567 
 508   0.0000       1.097020        29.8514 
 509   0.0000       1.097617        29.8677 
 510   0.0000       1.100475        29.9454 
 511   0.0000       1.103876        30.0380 
 512   0.0000       1.105362        30.0784 
 513   0.0000       1.108371        30.1603 
 514   0.0000       1.112877        30.2829 
 515   0.0000       1.114047        30.3148 
 516   0.0000       1.115663        30.3587 
 517   0.0000       1.120334        30.4858 
 518   0.0000       1.121143        30.5078 
 519   0.0000       1.125332        30.6218 
 520   0.0000       1.126089        30.6425 
 521   0.0000       1.129682        30.7402 
 522   0.0000       1.132512        30.8172 
 523   0.0000       1.137528        30.9537 
 524   0.0000       1.138066        30.9683 
 525   0.0000       1.140069        31.0228 
 526   0.0000       1.143531        31.1171 
 527   0.0000       1.144121        31.1331 
 528   0.0000       1.147164        31.2159 
 529   0.0000       1.149498        31.2794 
 530   0.0000       1.150775        31.3142 
 531   0.0000       1.152802        31.3693 
 532   0.0000       1.156707        31.4756 
 533   0.0000       1.158370        31.5208 
 534   0.0000       1.161062        31.5941 
 535   0.0000       1.164700        31.6931 
 536   0.0000       1.166087        31.7308 
 537   0.0000       1.170271        31.8447 
 538   0.0000       1.171185        31.8696 
 539   0.0000       1.172742        31.9119 
 540   0.0000       1.177683        32.0464 
 541   0.0000       1.181411        32.1478 
 542   0.0000       1.183069        32.1929 
 543   0.0000       1.184497        32.2318 
 544   0.0000       1.185582        32.2613 
 545   0.0000       1.190035        32.3825 
 546   0.0000       1.191088        32.4111 
 547   0.0000       1.193383        32.4736 
 548   0.0000       1.198560        32.6145 
 549   0.0000       1.203700        32.7543 
 550   0.0000       1.205568        32.8052 
 551   0.0000       1.208251        32.8782 
 552   0.0000       1.210186        32.9308 
 553   0.0000       1.211997        32.9801 
 554   0.0000       1.213922        33.0325 
 555   0.0000       1.217587        33.1322 
 556   0.0000       1.220114        33.2010 
 557   0.0000       1.223821        33.3019 
 558   0.0000       1.229027        33.4435 
 559   0.0000       1.230532        33.4845 
 560   0.0000       1.232118        33.5276 
 561   0.0000       1.233495        33.5651 
 562   0.0000       1.235480        33.6191 
 563   0.0000       1.236510        33.6471 
 564   0.0000       1.240186        33.7472 
 565   0.0000       1.243191        33.8290 
 566   0.0000       1.249146        33.9910 
 567   0.0000       1.249188        33.9921 
 568   0.0000       1.254294        34.1311 
 569   0.0000       1.256134        34.1812 
 570   0.0000       1.257655        34.2225 
 571   0.0000       1.259834        34.2818 
 572   0.0000       1.263239        34.3745 
 573   0.0000       1.263989        34.3949 
 574   0.0000       1.266038        34.4507 
 575   0.0000       1.267375        34.4870 
 576   0.0000       1.270559        34.5737 
 577   0.0000       1.275490        34.7078 
 578   0.0000       1.277022        34.7495 
 579   0.0000       1.282334        34.8941 
 580   0.0000       1.284368        34.9494 
 581   0.0000       1.289268        35.0828 
 582   0.0000       1.290519        35.1168 
 583   0.0000       1.295979        35.2654 
 584   0.0000       1.297566        35.3086 
 585   0.0000       1.299803        35.3694 
 586   0.0000       1.302258        35.4362 
 587   0.0000       1.306298        35.5462 
 588   0.0000       1.309010        35.6200 
 589   0.0000       1.312307        35.7097 
 590   0.0000       1.315251        35.7898 
 591   0.0000       1.316827        35.8327 
 592   0.0000       1.326022        36.0829 
 593   0.0000       1.326709        36.1016 
 594   0.0000       1.329849        36.1870 
 595   0.0000       1.331276        36.2259 
 596   0.0000       1.333874        36.2966 
 597   0.0000       1.335572        36.3428 
 598   0.0000       1.337349        36.3911 
 599   0.0000       1.339055        36.4375 
 600   0.0000       1.343161        36.5493 
 601   0.0000       1.343809        36.5669 
 602   0.0000       1.353988        36.8439 
 603   0.0000       1.355382        36.8818 
 604   0.0000       1.357608        36.9424 
 605   0.0000       1.363183        37.0941 
 606   0.0000       1.366282        37.1784 
 607   0.0000       1.367900        37.2225 
 608   0.0000       1.371925        37.3320 
 609   0.0000       1.375100        37.4184 
 610   0.0000       1.380854        37.5749 
 611   0.0000       1.382214        37.6119 
 612   0.0000       1.386816        37.7372 
 613   0.0000       1.388492        37.7828 
 614   0.0000       1.395539        37.9746 
 615   0.0000       1.396447        37.9992 
 616   0.0000       1.398622        38.0584 
 617   0.0000       1.400878        38.1198 
 618   0.0000       1.404109        38.2078 
 619   0.0000       1.412740        38.4426 
 620   0.0000       1.415996        38.5312 
 621   0.0000       1.419024        38.6136 
 622   0.0000       1.425299        38.7844 
 623   0.0000       1.427793        38.8522 
 624   0.0000       1.430501        38.9259 
 625   0.0000       1.435539        39.0630 
 626   0.0000       1.436967        39.1018 
 627   0.0000       1.441037        39.2126 
 628   0.0000       1.441606        39.2281 
 629   0.0000       1.446712        39.3670 
 630   0.0000       1.449562        39.4446 
 631   0.0000       1.454051        39.5667 
 632   0.0000       1.455337        39.6017 
 633   0.0000       1.459204        39.7070 
 634   0.0000       1.465130        39.8682 
[...]
      pz      :     0.746602  p :     2.163834
      px      :     0.697650
      py      :     0.719582
      dz2     :     0.181007  d :     0.898236
      dxz     :     0.248817
      dyz     :     0.100973
      dx2y2   :     0.190394
      dxy     :     0.177045
      f0      :     0.076846  f :     0.471875
      f+1     :     0.063260
      f-1     :     0.050321
      f+2     :     0.051981
      f-2     :     0.078245
      f+3     :     0.080456
      f-3     :     0.070766
 32 C s       :     2.433157  s :     2.433157
      pz      :     0.753892  p :     2.162097
      px      :     0.770668
      py      :     0.637537
      dz2     :     0.169637  d :     0.893157
      dxz     :     0.175360
      dyz     :     0.172397
      dx2y2   :     0.140556
      dxy     :     0.235207
      f0      :     0.083296  f :     0.471389
      f+1     :     0.039914
      f-1     :     0.058043
      f+2     :     0.073112
      f-2     :     0.054628
      f+3     :     0.081861
      f-3     :     0.080534
 33 O s       :     2.991870  s :     2.991870
      pz      :     1.423661  p :     3.874786
      px      :     1.309152
      py      :     1.141973
      dz2     :     0.041719  d :     0.430999
      dxz     :     0.059642
      dyz     :     0.077915
      dx2y2   :     0.128787
      dxy     :     0.122936
      f0      :     0.013235  f :     0.120515
      f+1     :     0.007533
      f-1     :     0.010056
      f+2     :     0.010580
      f-2     :     0.019743
      f+3     :     0.028946
      f-3     :     0.030422
 34 H s       :     0.617991  s :     0.617991
      pz      :     0.110355  p :     0.281809
      px      :     0.097953
      py      :     0.073502
      dz2     :     0.065136  d :     0.220878
      dxz     :     0.048624
      dyz     :     0.038021
      dx2y2   :     0.024883
      dxy     :     0.044214
 35 H s       :     0.611000  s :     0.611000
      pz      :     0.079910  p :     0.296269
      px      :     0.095341
      py      :     0.121018
      dz2     :     0.019536  d :     0.234632
      dxz     :     0.035712
      dyz     :     0.060221
      dx2y2   :     0.052810
      dxy     :     0.066353
 36 H s       :     0.623234  s :     0.623234
      pz      :     0.079630  p :     0.285614
      px      :     0.117329
      py      :     0.088656
      dz2     :     0.024007  d :     0.229157
      dxz     :     0.062393
      dyz     :     0.026748
      dx2y2   :     0.072384
      dxy     :     0.043624
 37 H s       :     0.620973  s :     0.620973
      pz      :     0.108399  p :     0.283439
      px      :     0.105775
      py      :     0.069266
      dz2     :     0.068013  d :     0.219749
      dxz     :     0.045824
      dyz     :     0.036154
      dx2y2   :     0.027458
      dxy     :     0.042300
 38 H s       :     0.636791  s :     0.636791
      pz      :     0.108223  p :     0.286665
      px      :     0.101744
      py      :     0.076697
      dz2     :     0.066438  d :     0.222898
      dxz     :     0.046989
      dyz     :     0.035493
      dx2y2   :     0.026886
      dxy     :     0.047093
 39 H s       :     0.649441  s :     0.649441
      pz      :     0.079048  p :     0.280752
      px      :     0.082061
      py      :     0.119644
      dz2     :     0.018996  d :     0.224020
      dxz     :     0.033127
      dyz     :     0.059082
      dx2y2   :     0.048322
      dxy     :     0.064493
 40 H s       :     0.648011  s :     0.648011
      pz      :     0.078998  p :     0.280077
      px      :     0.117221
      py      :     0.083859
      dz2     :     0.025497  d :     0.223944
      dxz     :     0.062825
      dyz     :     0.023267
      dx2y2   :     0.070977
      dxy     :     0.041379
 41 H s       :     0.635779  s :     0.635779
      pz      :     0.107013  p :     0.285972
      px      :     0.113362
      py      :     0.065597
      dz2     :     0.069198  d :     0.222746
      dxz     :     0.045643
      dyz     :     0.034684
      dx2y2   :     0.031929
      dxy     :     0.041292


                      *****************************
                      * MAYER POPULATION ANALYSIS *
                      *****************************

  NA   - Mulliken gross atomic population
  ZA   - Total nuclear charge
  QA   - Mulliken gross atomic charge
  VA   - Mayer's total valence
  BVA  - Mayer's bonded valence
  FA   - Mayer's free valence

  ATOM       NA         ZA         QA         VA         BVA        FA
  0 C      5.3142     6.0000     0.6858     2.8596     2.8596     0.0000
  1 S     13.9378    16.0000     2.0622     4.6471     4.6471    -0.0000
  2 O      8.9969     8.0000    -0.9969     1.4888     1.4888    -0.0000
  3 O      8.9830     8.0000    -0.9830     1.4462     1.4462    -0.0000
  4 N      8.0707     7.0000    -1.0707     2.4249     2.4249    -0.0000
  5 H      0.8956     1.0000     0.1044     1.1111     1.1111    -0.0000
  6 S     16.3624    16.0000    -0.3624     2.0646     2.0646    -0.0000
  7 C      6.6864     6.0000    -0.6864     2.8984     2.8984     0.0000
  8 C      5.7579     6.0000     0.2421     3.5141     3.5141    -0.0000
  9 C      6.9201     6.0000    -0.9201     3.5539     3.5539    -0.0000
 10 S     13.9248    16.0000     2.0752     3.2563     3.2563     0.0000
 11 C      5.1902     6.0000     0.8098     3.2785     3.2785    -0.0000
 12 O      9.1367     8.0000    -1.1367     1.0606     1.0606     0.0000
 13 O      9.0998     8.0000    -1.0998     1.0100     1.0100    -0.0000
 14 C      6.6066     6.0000    -0.6066     2.5565     2.5565    -0.0000
 15 C      7.0520     6.0000    -1.0520     2.6717     2.6717    -0.0000
 16 C      3.8641     6.0000     2.1359    -0.3089    -0.3089    -0.0000
 17 C      6.9225     6.0000    -0.9225     3.3667     3.3667     0.0000
 18 C      6.8003     6.0000    -0.8003     2.7061     2.7061     0.0000
 19 H      0.5035     1.0000     0.4965     0.6787     0.6787     0.0000
 20 H      0.6423     1.0000     0.3577     0.9597     0.9597    -0.0000
 21 H      0.5382     1.0000     0.4618     0.6964     0.6964     0.0000
 22 H      0.9854     1.0000     0.0146     1.2738     1.2738     0.0000
 23 H      0.5853     1.0000     0.4147     0.7226     0.7226    -0.0000
 24 C      6.6988     6.0000    -0.6988     3.9671     3.9671     0.0000
 25 N      6.8483     7.0000     0.1517     2.2232     2.2232     0.0000
 26 H      0.9838     1.0000     0.0162     1.3457     1.3457     0.0000
 27 H      0.6206     1.0000     0.3794     0.7686     0.7686    -0.0000
 28 H      0.7810     1.0000     0.2190     1.0137     1.0137    -0.0000
 29 C      6.6269     6.0000    -0.6269     3.8311     3.8311     0.0000
 30 C      6.7309     6.0000    -0.7309     3.9865     3.9865     0.0000
 31 C      6.3583     6.0000    -0.3583     3.7807     3.7807     0.0000
 32 C      6.3780     6.0000    -0.3780     3.7663     3.7663    -0.0000
 33 O      8.7252     8.0000    -0.7252     1.8201     1.8201     0.0000
 34 H      0.7474     1.0000     0.2526     0.9720     0.9720    -0.0000
 35 H      0.5410     1.0000     0.4590     0.7075     0.7075     0.0000
 36 H      0.6304     1.0000     0.3696     0.8883     0.8883     0.0000
 37 H      0.7743     1.0000     0.2257     1.0412     1.0412    -0.0000
 38 H      0.7301     1.0000     0.2699     0.9865     0.9865     0.0000
 39 H      0.6724     1.0000     0.3276     0.9428     0.9428     0.0000
 40 H      0.6266     1.0000     0.3734     0.8910     0.8910     0.0000
 41 H      0.7495     1.0000     0.2505     1.0364     1.0364    -0.0000

  Mayer bond orders larger than 0.100000
B(  0-C ,  1-S ) :   0.8051 B(  0-C ,  6-S ) :   0.8008 B(  0-C ,  8-C ) :  -0.1070 
B(  0-C ,  9-C ) :   1.2851 B(  1-S ,  2-O ) :   1.2598 B(  1-S ,  3-O ) :   1.2159 
B(  1-S ,  4-N ) :   1.2273 B(  1-S ,  5-H ) :   0.1212 B(  2-O ,  4-N ) :   0.1053 
B(  4-N ,  5-H ) :   0.9404 B(  6-S ,  7-C ) :   1.1254 B(  6-S ,  9-C ) :   0.2168 
B(  7-C ,  8-C ) :   1.0373 B(  7-C , 11-C ) :   0.1297 B(  7-C , 19-H ) :   0.6795 
B(  8-C ,  9-C ) :   0.8187 B(  8-C , 10-S ) :   1.1578 B(  8-C , 11-C ) :   0.3592 
B(  8-C , 12-O ) :   0.1980 B(  8-C , 13-O ) :   0.1120 B(  9-C , 11-C ) :   0.1639 
B(  9-C , 20-H ) :   0.9165 B( 10-S , 11-C ) :   1.0950 B( 10-S , 12-O ) :   0.6894 
B( 10-S , 13-O ) :   0.7611 B( 10-S , 18-C ) :  -0.1638 B( 11-C , 12-O ) :   0.2046 
B( 11-C , 13-O ) :   0.2833 B( 11-C , 14-C ) :   0.6740 B( 11-C , 15-C ) :  -0.1867 
B( 11-C , 16-C ) :  -0.1213 B( 11-C , 17-C ) :  -0.1792 B( 11-C , 18-C ) :   0.6756 
B( 11-C , 24-C ) :   0.1219 B( 12-O , 14-C ) :   0.1738 B( 12-O , 15-C ) :  -0.1143 
B( 12-O , 18-C ) :  -0.1052 B( 13-O , 17-C ) :  -0.1122 B( 14-C , 15-C ) :   1.2847 
B( 14-C , 16-C ) :   0.2754 B( 14-C , 21-H ) :   0.6814 B( 14-C , 22-H ) :  -0.1429 
B( 14-C , 24-C ) :  -0.1106 B( 15-C , 17-C ) :  -0.4311 B( 15-C , 18-C ) :   0.1896 
B( 15-C , 22-H ) :   1.7107 B( 15-C , 24-C ) :   0.2186 B( 15-C , 25-N ) :  -0.1139 
B( 15-C , 26-H ) :   0.1914 B( 16-C , 17-C ) :   0.5750 B( 16-C , 18-C ) :   0.2158 
B( 16-C , 22-H ) :  -0.4002 B( 16-C , 23-H ) :   0.1153 B( 16-C , 25-N ) :  -0.2432 
B( 16-C , 26-H ) :  -0.3931 B( 16-C , 27-H ) :  -0.1486 B( 17-C , 18-C ) :   1.3755 
B( 17-C , 22-H ) :   0.1321 B( 17-C , 24-C ) :   0.3561 B( 17-C , 26-H ) :   1.7013 
B( 18-C , 22-H ) :  -0.1059 B( 18-C , 23-H ) :   0.7536 B( 18-C , 26-H ) :  -0.1569 
B( 21-H , 38-H ) :  -0.1069 B( 21-H , 39-H ) :   0.1914 B( 22-H , 26-H ) :   0.1355 
B( 24-C , 25-N ) :   1.2711 B( 24-C , 27-H ) :   0.8985 B( 24-C , 28-H ) :   1.1349 
B( 25-N , 28-H ) :  -0.1097 B( 25-N , 29-C ) :   0.9136 B( 25-N , 30-C ) :   0.9041 
B( 25-N , 31-C ) :  -0.1217 B( 29-C , 30-C ) :   0.1000 B( 29-C , 32-C ) :   1.0321 
B( 29-C , 34-H ) :   0.9549 B( 29-C , 35-H ) :   0.7667 B( 30-C , 31-C ) :   1.0756 
B( 30-C , 36-H ) :   0.8538 B( 30-C , 37-H ) :   0.9839 B( 31-C , 33-O ) :   0.8908 
B( 31-C , 38-H ) :   0.9734 B( 31-C , 39-H ) :   0.9704 B( 32-C , 33-O ) :   0.8359 
B( 32-C , 40-H ) :   0.8994 B( 32-C , 41-H ) :   1.0346 

-------
TIMINGS
-------

Total SCF time: 0 days 0 hours 14 min 13 sec 

Total time                  ....     853.257 sec
Sum of individual times     ....     845.854 sec  ( 99.1%)

Fock matrix formation       ....     821.118 sec  ( 96.2%)
  Split-RI-J                ....      49.427 sec  (  6.0% of F)
  Chain of spheres X        ....     692.880 sec  ( 84.4% of F)
  XC integration            ....      75.821 sec  (  9.2% of F)
    Basis function eval.    ....       9.751 sec  ( 12.9% of XC)
    Density eval.           ....      32.736 sec  ( 43.2% of XC)
    XC-Functional eval.     ....       0.436 sec  (  0.6% of XC)
    XC-Potential eval.      ....      23.679 sec  ( 31.2% of XC)
Diagonalization             ....       3.354 sec  (  0.4%)
Density matrix formation    ....       0.765 sec  (  0.1%)
Population analysis         ....       0.682 sec  (  0.1%)
Initial guess               ....       4.930 sec  (  0.6%)
Orbital Transformation      ....       0.000 sec  (  0.0%)
Orbital Orthonormalization  ....       0.000 sec  (  0.0%)
DIIS solution               ....       2.589 sec  (  0.3%)
SOSCF solution              ....       3.179 sec  (  0.4%)
Grid generation             ....       9.237 sec  (  1.1%)

Maximum memory used throughout the entire SCF-calculation: 504.5 MB


           ************************************************************
           *        Program running with 8 parallel MPI-processes     *
           *              working on a common directory               *
           ************************************************************

------------------------------------------------------------------------------
                                ORCA  MP2 
------------------------------------------------------------------------------

Freezing NCore=74 chemical core electrons

   <<< Use J-auxbasis for calculation of Separable RI-J derivative contributions (Dim=1418) >>> 


-------------
RI-MP2 ENERGY
-------------
Dimension of the basis                    ... 1553
Memory devoted to MP2                     ... 5000 MB   
Data format for buffers                   ... DOUBLE
Compression type for matrix containers    ... UNCOMPRESSED
Scaling for aa/bb pairs                   ...   2.500e-01
Scaling for ab pairs                      ...   5.300e-01
Overall scaling of the MP2 energy         ...   1.000e+00
Calculating two index integrals           ... done (    0.123 sec)
Cholesky decomposition of V**-1           ... done (    1.262 sec)

-----------------
RI-TRANSFORMATION (AUX index driven)
-----------------

Dimension of the orbital-basis         ... 1553
Dimension of the aux-basis             ... 3555
Transformation of internal/external MOs...   37- 104 to  105-1552
Number Format for Storage              ... Double (8 Byte)
Integral mode                          ... Direct

First Phase: integral generation and transformation of MO indices
  Aux angular momentum 0               ... done (    2.334 sec)
  Aux angular momentum 1               ... done (    4.397 sec)
  Aux angular momentum 2               ... done (    5.812 sec)
  Aux angular momentum 3               ... done (    5.590 sec)
  Aux angular momentum 4               ... done (    2.893 sec)
Closing buffer VIA ( 2.61 GB; CompressionRatio= 1.00)
  Phase 1 completed in    22.775 sec
Second Phase: sorting and transformation of aux index

IA-Transformation
Memory available                       ... 4805 MB 
Max. # MO pairs treated in a batch     ... 9    
# of internal orbitals                 ... 68
# batches for internal orbitals        ... 1
Closing buffer IAV ( 2.61 GB; CompressionRatio= 1.00)
(ia|v) transformation done in     5.804 sec

  Phase 2 completed in     6.289 sec
RI-Integral transformation completed in    29.081 sec
Opening buffers                              ... done

Starting loop over batches of integrals:

Operator 0  - window                       ... ( 37-104)x(105-1552)
Operator 0  - Memory available             ...  5000 MB
Operator 0  - Memory needed per MO         ...  39.3 MB
Operator 0  - Number of orbitals per batch ... 9
Operator 0  - Number of batches            ... 1

OPERATOR  0   PASS   0:  MOs    37 ...   45 +   46 ...   54 +   55 ...   63 +   64 ...   72
                            +   73 ...   81 +   82 ...   90 +   91 ...   99 +  100 ...  104
  Reading integrals       ... ok
  Internal MO  39
  Internal MO  42
  Internal MO  45
Time spent in pair loops =    10.511 sec
Deleting buffer (Ka|jb)[aa] ...done

-----------------------------------------------
 RI-MP2 CORRELATION ENERGY:     -2.412205635 Eh
-----------------------------------------------


-------
TIMINGS
-------

Total time                :  156.672 sec
Integral trafo            :   29.100 sec ( 18.6%)
I/O of integrals          :    0.235 sec (  0.1%)
K(i,j) Operators          :    9.087 sec (  5.8%)
T(i,j) pair energies      :    0.697 sec (  0.4%)
V-calculation             :    0.123 sec (  0.1%)
V**(-1/2)                 :    1.262 sec (  0.8%)
Gamma(ia|P)               :    0.000 sec (  0.0%)
Gamma-Trafo               :    0.000 sec (  0.0%)
D(virtual)                :    0.000 sec (  0.0%)
D(internal)               :    0.000 sec (  0.0%)
W(virtual)                :    0.000 sec (  0.0%)
W(internal)               :    0.000 sec (  0.0%)
L(virtual)                :    0.000 sec (  0.0%)
L(internal)               :    0.000 sec (  0.0%)
G(D)                      :    0.000 sec (  0.0%)
G(Z)                      :    0.000 sec (  0.0%)
Z-Vector Solution         :    0.000 sec (  0.0%)
3-Index Derivative        :    0.000 sec (  0.0%)
2-Index Derivative        :    0.000 sec (  0.0%)
Separable Gradient (RIJ)  :    0.000 sec (  0.0%)
Separable Gradient (COSX) :    0.000 sec (  0.0%)


---------------------------------------
MP2 TOTAL ENERGY:    -2259.707991406 Eh
---------------------------------------

Maximum memory used throughout the entire MP2-calculation: 668.1 MB


-------------------------------------------------------------------------------
                          DFT DISPERSION CORRECTION                            
                                                                               
                              DFTD3 V3.1  Rev 1                                
                          USING Becke-Johnson damping                          
-------------------------------------------------------------------------------
The DSD-PBEP86 functional is recognized
Active option DFTDOPT                   ...         4   

molecular C6(AA) [au] = 25528.629508 


            DFT-D V3
 parameters
 s6 scaling factor         :     0.4180 
 a1 scaling factor         :     0.0000 
 s8 scaling factor         :     0.0000 
 a2 scaling factor         :     5.6500 
 ad hoc parameters k1-k3   :    16.0000     1.3333    -4.0000 

 Edisp/kcal,au: -22.536755000788  -0.035914601338 
 E6   /kcal   : -22.536755001 
 E8   /kcal   :  -0.000000000 
 % E8         :   0.000000000 

-------------------------   ----------------
Dispersion correction           -0.035914601
-------------------------   ----------------


-------------------------   --------------------
FINAL SINGLE POINT ENERGY     -2259.743906007660
-------------------------   --------------------


                            ***************************************
                            *     ORCA property calculations      *
                            ***************************************


  WARNING: The energy has been calculated at the MP2 level but the densities
           used in the property calculations are still SCF densities
           MP2 response densities have not been calculated 
           use %mp2 Density relaxed end
           or  %mp2 Density unrelaxed end

                                    ---------------------
                                    Active property flags
                                    ---------------------
   (+) Dipole Moment


------------------------------------------------------------------------------
                       ORCA ELECTRIC PROPERTIES CALCULATION
------------------------------------------------------------------------------

Dipole Moment Calculation                       ... on
Quadrupole Moment Calculation                   ... off
Polarizability Calculation                      ... off
GBWName                                         ... A.20.avtz.gbw
Electron density                                ... A.20.avtz.scfp
The origin for moment calculation is the CENTER OF MASS  = ( 2.719626, -2.005364 -5.938028)

-------------
DIPOLE MOMENT
-------------
                                X             Y             Z
Electronic contribution:    -34.22860      28.42524       9.49417
Nuclear contribution   :     40.01021     -32.93183     -14.31332
                        -----------------------------------------
Total Dipole Moment    :      5.78161      -4.50659      -4.81914
                        -----------------------------------------
Magnitude (a.u.)       :      8.77271
Magnitude (Debye)      :     22.29846



--------------------
Rotational spectrum 
--------------------
 
Rotational constants in cm-1:     0.011846     0.002275     0.002092 
Rotational constants in MHz :   355.123948    68.190586    62.723778 

 Dipole components along the rotational axes: 
x,y,z [a.u.] :    -8.626453    -0.713615    -1.426716 
x,y,z [Debye]:   -21.926702    -1.813865    -3.626423 

 

Timings for individual modules:

Sum of individual times         ...     1020.084 sec (=  17.001 min)
GTO integral calculation        ...        6.396 sec (=   0.107 min)   0.6 %
SCF iterations                  ...      855.020 sec (=  14.250 min)  83.8 %
MP2 module                      ...      158.669 sec (=   2.644 min)  15.6 %
                             ****ORCA TERMINATED NORMALLY****
TOTAL RUN TIME: 0 days 0 hours 17 minutes 3 seconds 922 msec
