
                                 *****************
                                 * O   R   C   A *
                                 *****************

                                            #,                                       
                                            ###                                      
                                            ####                                     
                                            #####                                    
                                            ######                                   
                                           ########,                                 
                                     ,,################,,,,,                         
                               ,,#################################,,                 
                          ,,##########################################,,             
                       ,#########################################, ''#####,          
                    ,#############################################,,   '####,        
                  ,##################################################,,,,####,       
                ,###########''''           ''''###############################       
              ,#####''   ,,,,##########,,,,          '''####'''          '####       
            ,##' ,,,,###########################,,,                        '##       
           ' ,,###''''                  '''############,,,                           
         ,,##''                                '''############,,,,        ,,,,,,###''
      ,#''                                            '''#######################'''  
     '                                                          ''''####''''         
             ,#######,   #######,   ,#######,      ##                                
            ,#'     '#,  ##    ##  ,#'     '#,    #''#        ######   ,####,        
            ##       ##  ##   ,#'  ##            #'  '#       #        #'  '#        
            ##       ##  #######   ##           ,######,      #####,   #    #        
            '#,     ,#'  ##    ##  '#,     ,#' ,#      #,         ##   #,  ,#        
             '#######'   ##     ##  '#######'  #'      '#     #####' # '####'        



                  #######################################################
                  #                        -***-                        #
                  #          Department of theory and spectroscopy      #
                  #    Directorship and core code : Frank Neese         #
                  #        Max Planck Institute fuer Kohlenforschung    #
                  #                Kaiser Wilhelm Platz 1               #
                  #                 D-45470 Muelheim/Ruhr               #
                  #                      Germany                        #
                  #                                                     #
                  #                  All rights reserved                #
                  #                        -***-                        #
                  #######################################################


                         Program Version 5.0.3 -  RELEASE  -


 With contributions from (in alphabetic order):
   Daniel Aravena         : Magnetic Suceptibility
   Michael Atanasov       : Ab Initio Ligand Field Theory (pilot matlab implementation)
   Alexander A. Auer      : GIAO ZORA, VPT2 properties, NMR spectrum
   Ute Becker             : Parallelization
   Giovanni Bistoni       : ED, misc. LED, open-shell LED, HFLD
   Martin Brehm           : Molecular dynamics
   Dmytro Bykov           : SCF Hessian
   Vijay G. Chilkuri      : MRCI spin determinant printing, contributions to CSF-ICE
   Dipayan Datta          : RHF DLPNO-CCSD density
   Achintya Kumar Dutta   : EOM-CC, STEOM-CC
   Dmitry Ganyushin       : Spin-Orbit,Spin-Spin,Magnetic field MRCI
   Miquel Garcia          : C-PCM and meta-GGA Hessian, CC/C-PCM, Gaussian charge scheme
   Yang Guo               : DLPNO-NEVPT2, F12-NEVPT2, CIM, IAO-localization
   Andreas Hansen         : Spin unrestricted coupled pair/coupled cluster methods
   Benjamin Helmich-Paris : MC-RPA, TRAH-SCF, COSX integrals
   Lee Huntington         : MR-EOM, pCC
   Robert Izsak           : Overlap fitted RIJCOSX, COSX-SCS-MP3, EOM
   Marcus Kettner         : VPT2
   Christian Kollmar      : KDIIS, OOCD, Brueckner-CCSD(T), CCSD density, CASPT2, CASPT2-K
   Simone Kossmann        : Meta GGA functionals, TD-DFT gradient, OOMP2, MP2 Hessian
   Martin Krupicka        : Initial AUTO-CI
   Lucas Lang             : DCDCAS
   Marvin Lechner         : AUTO-CI (C++ implementation), FIC-MRCC
   Dagmar Lenk            : GEPOL surface, SMD
   Dimitrios Liakos       : Extrapolation schemes; Compound Job, initial MDCI parallelization
   Dimitrios Manganas     : Further ROCIS development; embedding schemes
   Dimitrios Pantazis     : SARC Basis sets
   Anastasios Papadopoulos: AUTO-CI, single reference methods and gradients
   Taras Petrenko         : DFT Hessian,TD-DFT gradient, ASA, ECA, R-Raman, ABS, FL, XAS/XES, NRVS
   Peter Pinski           : DLPNO-MP2, DLPNO-MP2 Gradient
   Christoph Reimann      : Effective Core Potentials
   Marius Retegan         : Local ZFS, SOC
   Christoph Riplinger    : Optimizer, TS searches, QM/MM, DLPNO-CCSD(T), (RO)-DLPNO pert. Triples
   Tobias Risthaus        : Range-separated hybrids, TD-DFT gradient, RPA, STAB
   Michael Roemelt        : Original ROCIS implementation
   Masaaki Saitow         : Open-shell DLPNO-CCSD energy and density
   Barbara Sandhoefer     : DKH picture change effects
   Avijit Sen             : IP-ROCIS
   Kantharuban Sivalingam : CASSCF convergence, NEVPT2, FIC-MRCI
   Bernardo de Souza      : ESD, SOC TD-DFT
   Georgi Stoychev        : AutoAux, RI-MP2 NMR, DLPNO-MP2 response
   Willem Van den Heuvel  : Paramagnetic NMR
   Boris Wezisla          : Elementary symmetry handling
   Frank Wennmohs         : Technical directorship


 We gratefully acknowledge several colleagues who have allowed us to
 interface, adapt or use parts of their codes:
   Stefan Grimme, W. Hujo, H. Kruse, P. Pracht,  : VdW corrections, initial TS optimization,
                  C. Bannwarth, S. Ehlert          DFT functionals, gCP, sTDA/sTD-DF
   Ed Valeev, F. Pavosevic, A. Kumar             : LibInt (2-el integral package), F12 methods
   Garnet Chan, S. Sharma, J. Yang, R. Olivares  : DMRG
   Ulf Ekstrom                                   : XCFun DFT Library
   Mihaly Kallay                                 : mrcc  (arbitrary order and MRCC methods)
   Jiri Pittner, Ondrej Demel                    : Mk-CCSD
   Frank Weinhold                                : gennbo (NPA and NBO analysis)
   Christopher J. Cramer and Donald G. Truhlar   : smd solvation model
   Lars Goerigk                                  : TD-DFT with DH, B97 family of functionals
   V. Asgeirsson, H. Jonsson                     : NEB implementation
   FAccTs GmbH                                   : IRC, NEB, NEB-TS, DLPNO-Multilevel, CI-OPT
                                                   MM, QMMM, 2- and 3-layer-ONIOM, Crystal-QMMM,
                                                   LR-CPCM, SF, NACMEs, symmetry and pop. for TD-DFT,
                                                   nearIR, NL-DFT gradient (VV10), updates on ESD,
                                                   ML-optimized integration grids
   S Lehtola, MJT Oliveira, MAL Marques          : LibXC Library
   Liviu Ungur et al                             : ANISO software


 Your calculation uses the libint2 library for the computation of 2-el integrals
 For citations please refer to: http://libint.valeyev.net

 Your ORCA version has been built with support for libXC version: 5.1.0
 For citations please refer to: https://tddft.org/programs/libxc/

 This ORCA versions uses:
   CBLAS   interface :  Fast vector & matrix operations
   LAPACKE interface :  Fast linear algebra routines
   SCALAPACK package :  Parallel linear algebra routines
   Shared memory     :  Shared parallel matrices
   BLAS/LAPACK       :  OpenBLAS 0.3.15  USE64BITINT DYNAMIC_ARCH NO_AFFINITY SkylakeX SINGLE_THREADED
        Core in use  :  SkylakeX
   Copyright (c) 2011-2014, The OpenBLAS Project


Your calculation utilizes the atom-pairwise dispersion correction
with the Becke-Johnson damping scheme (D3BJ)
Cite in your paper:
S.Grimme, S.Ehrlich, L.Goerigk, J Comput Chem, (2011), 32, 1456–1465 
S.Grimme, J.Antony, S.Ehrlich and H.Krieg, J.Chem.Phys., 132, (2010), 154104 
   

================================================================================

----- Orbital basis set information -----
Your calculation utilizes the basis: aug-cc-pVTZ 
    H, B-Ne : Obtained from the ccRepo (grant-hill.group.shef.ac.uk/ccrepo) Feb. 2017
              R. A. Kendall, T. H. Dunning, Jr., R. J. Harrison, J. Chem. Phys. 96, 6796 (1992)
         He : Obtained from the ccRepo (grant-hill.group.shef.ac.uk/ccrepo) Feb. 2017
              D. E. Woon, T. H. Dunning, Jr., J. Chem. Phys. 100, 2975 (1994)
  Li-Be, Na : Obtained from the ccRepo (grant-hill.group.shef.ac.uk/ccrepo) Feb. 2017
              B. P. Prascher, D. E. Woon, K. A. Peterson, T. H. Dunning, Jr., A. K. Wilson, Theor. Chem. Acc. 128, 69 (2011)
         Mg : Obtained from the Peterson Research Group Website (tyr0.chem.wsu.edu/~kipeters) Feb. 2017
              B. P. Prascher, D. E. Woon, K. A. Peterson, T. H. Dunning, Jr., A. K. Wilson, Theor. Chem. Acc. 128, 69 (2011)
      Al-Ar : Obtained from the ccRepo (grant-hill.group.shef.ac.uk/ccrepo) Feb. 2017
              D. E. Woon, T. H. Dunning, Jr., J. Chem. Phys. 98, 1358 (1993)
      Sc-Zn : Obtained from the ccRepo (grant-hill.group.shef.ac.uk/ccrepo) Feb. 2017
              N. B. Balabanov, K. A. Peterson, J. Chem. Phys. 123, 064107 (2005)
              N. B. Balabanov, K. A. Peterson, J. Chem. Phys. 125, 074110 (2006)
      Ga-Kr : Obtained from the ccRepo (grant-hill.group.shef.ac.uk/ccrepo) Feb. 2017
              A. K. Wilson, D. E. Woon, K. A. Peterson, T. H. Dunning, Jr., J. Chem. Phys. 110, 7667 (1999)
     Ag, Au : Obtained from the Peterson Research Group Website (tyr0.chem.wsu.edu/~kipeters) Feb. 2017
              K. A. Peterson, C. Puzzarini, Theor. Chem. Acc. 114, 283 (2005)

----- AuxJ basis set information -----
Your calculation utilizes the auxiliary basis: def2/J
   F. Weigend, Phys. Chem. Chem. Phys. 8, 1057 (2006).

----- AuxC basis set information -----
Your calculation utilizes the auxiliary basis: aug-cc-pVTZ/C 
  H-He, B-F, Al-Ar, Ga-Kr : Obtained from the EMSL Basis Set Exchange (bse.pnl.gov) Feb. 2017
                            F. Weigend, A. Kohn, C. Hattig, J. Chem. Phys. 116, 3175 (2002)
                   Be, Mg : Obtained from the TURBOMOLE 7.0 basis set library
                            C. Haettig, Phys. Chem. Chem. Phys. 7, 59 (2005)
                       Ne : Obtained from the EMSL Basis Set Exchange (bse.pnl.gov) Feb. 2017
                            C. Haettig, Phys. Chem. Chem. Phys. 7, 59 (2005)
                            F. Weigend, A. Kohn, C. Hattig, J. Chem. Phys. 116, 3175 (2002)
                    Sc-Zn : Obtained from the EMSL Basis Set Exchange (bse.pnl.gov) Feb. 2017
                            J. G. Hill, J. A. Platts, J. Chem. Phys. 128, 044104 (2008)

================================================================================
                                        WARNINGS
                       Please study these warnings very carefully!
================================================================================


WARNING: No MP2 level density has been requested!
         To caclulate MP2 level properties use
         %mp2 Density relaxed end
         or
         %mp2 Density unrelaxed end
         Otherwise for double-hybrid DFT only the energy is correct!

WARNING: There are different parametrizations of Gershom Martin's DSD-DFs
         for use with and without D3(BJ)!
         You are using the D3(BJ) parametrized version,
         consistent with the GMTKN55 benchmark (L. Goerigk et al., PCCP 2017, 19, 32184)

WARNING: The frozen-core approximation is turned on by default for 
         the MP2 part of double-hybrid DFT.

INFO   : the flag for use of the SHARK integral package has been found!

================================================================================
                                       INPUT FILE
================================================================================
NAME = A.23.avtz.com
|  1> !PAL8
|  2> !RI-DSD-PBEP86 D3BJ aug-cc-pVTZ aug-cc-pVTZ/C TightSCF
|  3> %maxcore 3000
|  4> 
|  5> 
|  6> * xyz -1 1
|  7> C  1.0954542487  0.4381697685  0.3003125012
|  8> C -1.2370034836  0.8581294395  0.1297768534
|  9> N -2.5952395419  0.9648903826 -0.1696455408
| 10> S -0.1961509919 -0.3103249371 -0.6221365092
| 11> S  2.8115624609 -0.225794685  0.1590327281
| 12> O  3.0398405817 -0.750790036  1.5201962232
| 13> O  2.5923682583 -1.2224122514 -0.905442465
| 14> N  3.7410125388  0.923053554 -0.3102245533
| 15> H  3.98240709  1.4625485885  0.5234486295
| 16> N  0.7102462022  1.4317953467  1.0201722343
| 17> N -0.6397278318  1.6801412029  0.9392872879
| 18> H -3.074680794  0.0726125706 -0.2052608656
| 19> H -3.0449267375  1.5936090561  0.4894274763
| 20> *
| 21> 
| 22>                          ****END OF INPUT****
================================================================================

                       ****************************
                       * Single Point Calculation *
                       ****************************

---------------------------------
CARTESIAN COORDINATES (ANGSTROEM)
---------------------------------
  C      1.095454    0.438170    0.300313
  C     -1.237003    0.858129    0.129777
  N     -2.595240    0.964890   -0.169646
  S     -0.196151   -0.310325   -0.622137
  S      2.811562   -0.225795    0.159033
  O      3.039841   -0.750790    1.520196
  O      2.592368   -1.222412   -0.905442
  N      3.741013    0.923054   -0.310225
  H      3.982407    1.462549    0.523449
  N      0.710246    1.431795    1.020172
  N     -0.639728    1.680141    0.939287
  H     -3.074681    0.072613   -0.205261
  H     -3.044927    1.593609    0.489427

----------------------------
CARTESIAN COORDINATES (A.U.)
----------------------------
  NO LB      ZA    FRAG     MASS         X           Y           Z
   0 C     6.0000    0    12.011    2.070109    0.828021    0.567508
   1 C     6.0000    0    12.011   -2.337598    1.621630    0.245243
   2 N     7.0000    0    14.007   -4.904292    1.823379   -0.320584
   3 S    16.0000    0    32.060   -0.370672   -0.586429   -1.175668
   4 S    16.0000    0    32.060    5.313083   -0.426690    0.300528
   5 O     8.0000    0    15.999    5.744466   -1.418788    2.872755
   6 O     8.0000    0    15.999    4.898866   -2.310024   -1.711038
   7 N     7.0000    0    14.007    7.069489    1.744318   -0.586239
   8 H     1.0000    0     1.008    7.525659    2.763816    0.989175
   9 N     7.0000    0    14.007    1.342171    2.705701    1.927846
  10 N     7.0000    0    14.007   -1.208910    3.175007    1.774996
  11 H     1.0000    0     1.008   -5.810305    0.137218   -0.387887
  12 H     1.0000    0     1.008   -5.754078    3.011485    0.924884

--------------------------------
INTERNAL COORDINATES (ANGSTROEM)
--------------------------------
 C      0   0   0     0.000000000000     0.00000000     0.00000000
 C      1   0   0     2.376090824317     0.00000000     0.00000000
 N      2   1   0     1.394939733174   169.97781854     0.00000000
 S      2   1   3     1.736097129924    47.43730230    15.07252966
 S      1   2   3     1.845490765563   166.14636497   341.71754090
 O      5   1   4     1.476650628754   101.60121971   245.93740282
 O      5   1   4     1.474584724197    99.21827082     5.72335724
 N      5   1   4     1.550461905275   108.30195394   122.46769133
 H      8   5   1     1.021928176204   106.61105255    82.26176664
 N      1   2   3     1.286030739944    67.01965103   163.75863463
 N      2   1  10     1.299133821808    67.40617277   359.50427273
 H      3   2  11     1.013554171894   113.62502086   221.25309755
 H      3   2  11     1.015816413612   109.82450640   346.23824270

---------------------------
INTERNAL COORDINATES (A.U.)
---------------------------
 C      0   0   0     0.000000000000     0.00000000     0.00000000
 C      1   0   0     4.490160927282     0.00000000     0.00000000
 N      2   1   0     2.636054069023   169.97781854     0.00000000
 S      2   1   3     3.280748117443    47.43730230    15.07252966
 S      1   2   3     3.487472129595   166.14636497   341.71754090
 O      5   1   4     2.790465283828   101.60121971   245.93740282
 O      5   1   4     2.786561289997    99.21827082     5.72335724
 N      5   1   4     2.929948382047   108.30195394   122.46769133
 H      8   5   1     1.931164381563   106.61105255    82.26176664
 N      1   2   3     2.430245898298    67.01965103   163.75863463
 N      2   1  10     2.455007134532    67.40617277   359.50427273
 H      3   2  11     1.915339806773   113.62502086   221.25309755
 H      3   2  11     1.919614824069   109.82450640   346.23824270

---------------------
BASIS SET INFORMATION
---------------------
There are 5 groups of distinct atoms

 Group   1 Type C   : 19s6p3d2f contracted to 5s4p3d2f pattern {88111/3111/111/11}
 Group   2 Type N   : 19s6p3d2f contracted to 5s4p3d2f pattern {88111/3111/111/11}
 Group   3 Type S   : 42s17p3d2f contracted to 6s5p3d2f pattern {131313111/77111/111/11}
 Group   4 Type O   : 19s6p3d2f contracted to 5s4p3d2f pattern {88111/3111/111/11}
 Group   5 Type H   : 6s3p2d contracted to 4s3p2d pattern {3111/111/11}

Atom   0C    basis set group =>   1
Atom   1C    basis set group =>   1
Atom   2N    basis set group =>   2
Atom   3S    basis set group =>   3
Atom   4S    basis set group =>   3
Atom   5O    basis set group =>   4
Atom   6O    basis set group =>   4
Atom   7N    basis set group =>   2
Atom   8H    basis set group =>   5
Atom   9N    basis set group =>   2
Atom  10N    basis set group =>   2
Atom  11H    basis set group =>   5
Atom  12H    basis set group =>   5
---------------------------------
AUXILIARY/J BASIS SET INFORMATION
---------------------------------
There are 5 groups of distinct atoms

 Group   1 Type C   : 12s5p4d2f1g contracted to 6s4p3d1f1g pattern {711111/2111/211/2/1}
 Group   2 Type N   : 12s5p4d2f1g contracted to 6s4p3d1f1g pattern {711111/2111/211/2/1}
 Group   3 Type S   : 14s5p5d2f1g contracted to 8s4p3d1f1g pattern {71111111/2111/311/2/1}
 Group   4 Type O   : 12s5p4d2f1g contracted to 6s4p3d1f1g pattern {711111/2111/211/2/1}
 Group   5 Type H   : 5s2p1d contracted to 3s1p1d pattern {311/2/1}

Atom   0C    basis set group =>   1
Atom   1C    basis set group =>   1
Atom   2N    basis set group =>   2
Atom   3S    basis set group =>   3
Atom   4S    basis set group =>   3
Atom   5O    basis set group =>   4
Atom   6O    basis set group =>   4
Atom   7N    basis set group =>   2
Atom   8H    basis set group =>   5
Atom   9N    basis set group =>   2
Atom  10N    basis set group =>   2
Atom  11H    basis set group =>   5
Atom  12H    basis set group =>   5
---------------------------------
AUXILIARY/C BASIS SET INFORMATION
---------------------------------
There are 5 groups of distinct atoms

 Group   1 Type C   : 9s7p6d4f2g contracted to 9s7p6d4f2g pattern {111111111/1111111/111111/1111/11}
 Group   2 Type N   : 9s7p6d4f2g contracted to 9s7p6d4f2g pattern {111111111/1111111/111111/1111/11}
 Group   3 Type S   : 11s9p8d6f3g contracted to 11s9p8d6f3g pattern {11111111111/111111111/11111111/111111/111}
 Group   4 Type O   : 9s7p6d4f2g contracted to 9s7p6d4f2g pattern {111111111/1111111/111111/1111/11}
 Group   5 Type H   : 5s4p3d2f contracted to 5s4p3d2f pattern {11111/1111/111/11}

Atom   0C    basis set group =>   1
Atom   1C    basis set group =>   1
Atom   2N    basis set group =>   2
Atom   3S    basis set group =>   3
Atom   4S    basis set group =>   3
Atom   5O    basis set group =>   4
Atom   6O    basis set group =>   4
Atom   7N    basis set group =>   2
Atom   8H    basis set group =>   5
Atom   9N    basis set group =>   2
Atom  10N    basis set group =>   2
Atom  11H    basis set group =>   5
Atom  12H    basis set group =>   5


           ************************************************************
           *        Program running with 8 parallel MPI-processes     *
           *              working on a common directory               *
           ************************************************************
------------------------------------------------------------------------------
                           ORCA GTO INTEGRAL CALCULATION
                           -- RI-GTO INTEGRALS CHOSEN --
------------------------------------------------------------------------------
------------------------------------------------------------------------------
                   ___                                                        
                  /   \      - P O W E R E D   B Y -                         
                 /     \                                                     
                 |  |  |   _    _      __       _____    __    __             
                 |  |  |  | |  | |    /  \     |  _  \  |  |  /  |          
                  \  \/   | |  | |   /    \    | | | |  |  | /  /          
                 / \  \   | |__| |  /  /\  \   | |_| |  |  |/  /          
                |  |  |   |  __  | /  /__\  \  |    /   |      \           
                |  |  |   | |  | | |   __   |  |    \   |  |\   \          
                \     /   | |  | | |  |  |  |  | |\  \  |  | \   \       
                 \___/    |_|  |_| |__|  |__|  |_| \__\ |__|  \__/        
                                                                              
                      - O R C A' S   B I G   F R I E N D -                    
                                      &                                       
                       - I N T E G R A L  F E E D E R -                       
                                                                              
 v1 FN, 2020, v2 2021                                                         
------------------------------------------------------------------------------


Reading SHARK input file A.23.avtz.SHARKINP.tmp ... ok
----------------------
SHARK INTEGRAL PACKAGE
----------------------

Number of atoms                             ...     13
Number of basis functions                   ...    635
Number of shells                            ...    249
Maximum angular momentum                    ...      3
Integral batch strategy                     ... SHARK/LIBINT Hybrid
RI-J (if used) integral strategy            ... SPLIT-RIJ (Revised 2003 algorithm where possible)
Printlevel                                  ...      1
Contraction scheme used                     ... PARTIAL GENERAL contraction
Coulomb Range Separation                    ... NOT USED
Exchange Range Separation                   ... NOT USED
Finite Nucleus Model                        ... NOT USED
Auxiliary Coulomb fitting basis             ... AVAILABLE
   # of basis functions in Aux-J            ...    527
   # of shells in Aux-J                     ...    169
   Maximum angular momentum in Aux-J        ...      4
Auxiliary J/K fitting basis                 ... NOT available
Auxiliary Correlation fitting basis         ... AVAILABLE
   # of basis functions in Aux-C            ...   1280
   # of shells in Aux-C                     ...    340
   Maximum angular momentum in Aux-C        ...      4
Auxiliary 'external' fitting basis          ... NOT available
Integral threshold                          ...     2.500000e-11
Primitive cut-off                           ...     2.500000e-12
Primitive pair pre-selection threshold      ...     2.500000e-12

Calculating pre-screening integrals         ... done (  0.0 sec) Dimension = 249
Calculating pre-screening integrals (ORCA)  ... done (  0.2 sec) Dimension = 171
Organizing shell pair data                  ... done (  0.2 sec)
Shell pair information
Total number of shell pairs                 ...     31125
Shell pairs after pre-screening             ...     23028
Total number of primitive shell pairs       ...     36889
Primitive shell pairs kept                  ...     25784
          la=0 lb=0:   4949 shell pairs
          la=1 lb=0:   6004 shell pairs
          la=1 lb=1:   1636 shell pairs
          la=2 lb=0:   3767 shell pairs
          la=2 lb=1:   1943 shell pairs
          la=2 lb=2:    608 shell pairs
          la=3 lb=0:   2146 shell pairs
          la=3 lb=1:   1114 shell pairs
          la=3 lb=2:    665 shell pairs
          la=3 lb=3:    196 shell pairs

Calculating one electron integrals          ... done (  0.0 sec)
Calculating RI/J V-Matrix + Cholesky decomp.... done (  0.1 sec)
Calculating RI/C V-Matrix + Cholesky decomp.... done (  0.1 sec)
Calculating Nuclear repulsion               ... done (  0.0 sec) ENN=    744.661607986196 Eh

SHARK setup successfully completed in   1.0 seconds

Maximum memory used throughout the entire GTOINT-calculation: 65.7 MB


           ************************************************************
           *        Program running with 8 parallel MPI-processes     *
           *              working on a common directory               *
           ************************************************************
-------------------------------------------------------------------------------
                                 ORCA SCF
-------------------------------------------------------------------------------

------------
SCF SETTINGS
------------
Hamiltonian:
 Density Functional     Method          .... DFT(GTOs)
 Exchange Functional    Exchange        .... PBE
   PBE kappa parameter   XKappa         ....  0.804000
   PBE mue parameter    XMuePBE         ....  0.219520
 Correlation Functional Correlation     .... P86
 LDA part of GGA corr.  LDAOpt          .... VWN-5
 Gradients option       PostSCFGGA      .... off
 Hybrid DFT is turned on
   Fraction HF Exchange ScalHFX         ....  0.700000
   Scaling of DF-GGA-X  ScalDFX         ....  0.300000
   Scaling of DF-GGA-C  ScalDFC         ....  0.430000
   Scaling of DF-LDA-C  ScalLDAC        ....  0.430000
   Perturbative correction              ....  1.000000
   Density functional embedding theory  .... OFF
   NL short-range parameter             .... 14.200000
 RI-approximation to the Coulomb term is turned on
   Number of AuxJ basis functions       .... 527
   RIJ-COSX (HFX calculated with COS-X)).... on


General Settings:
 Integral files         IntName         .... A.23.avtz
 Hartree-Fock type      HFTyp           .... RHF
 Total Charge           Charge          ....   -1
 Multiplicity           Mult            ....    1
 Number of Electrons    NEL             ....   92
 Basis Dimension        Dim             ....  537
 Nuclear Repulsion      ENuc            ....    744.6616079862 Eh

Convergence Acceleration:
 DIIS                   CNVDIIS         .... on
   Start iteration      DIISMaxIt       ....    12
   Startup error        DIISStart       ....  0.200000
   # of expansion vecs  DIISMaxEq       ....     5
   Bias factor          DIISBfac        ....   1.050
   Max. coefficient     DIISMaxC        ....  10.000
 Trust-Rad. Augm. Hess. CNVTRAH         .... auto
   Auto Start mean grad. ratio tolernc. ....  1.125000
   Auto Start start iteration           ....    20
   Auto Start num. interpolation iter.  ....    10
   Max. Number of Micro iterations      ....    16
   Max. Number of Macro iterations      .... Maxiter - #DIIS iter
   Number of Davidson start vectors     ....     2
   Converg. threshold I  (grad. norm)   ....   1.000e-05
   Converg. threshold II (energy diff.) ....   1.000e-08
   Grad. Scal. Fac. for Micro threshold ....   0.100
   Minimum threshold for Micro iter.    ....   0.010
   NR start threshold (gradient norm)   ....   0.001
   Initial trust radius                 ....   0.400
   Minimum AH scaling param. (alpha)    ....   1.000
   Maximum AH scaling param. (alpha)    .... 1000.000
   Orbital update algorithm             .... Taylor
   White noise on init. David. guess    .... on
   Maximum white noise                  ....   0.010
   Quad. conv. algorithm                .... NR
 SOSCF                  CNVSOSCF        .... on
   Start iteration      SOSCFMaxIt      ....   150
   Startup grad/error   SOSCFStart      ....  0.003300
 Level Shifting         CNVShift        .... on
   Level shift para.    LevelShift      ....    0.2500
   Turn off err/grad.   ShiftErr        ....    0.0010
 Zerner damping         CNVZerner       .... off
 Static damping         CNVDamp         .... on
   Fraction old density DampFac         ....    0.7000
   Max. Damping (<1)    DampMax         ....    0.9800
   Min. Damping (>=0)   DampMin         ....    0.0000
   Turn off err/grad.   DampErr         ....    0.1000
 Fernandez-Rico         CNVRico         .... off

SCF Procedure:
 Maximum # iterations   MaxIter         ....   125
 SCF integral mode      SCFMode         .... Direct
   Integral package                     .... SHARK and LIBINT hybrid scheme
 Reset frequency        DirectResetFreq ....    20
 Integral Threshold     Thresh          ....  2.500e-11 Eh
 Primitive CutOff       TCut            ....  2.500e-12 Eh

Convergence Tolerance:
 Convergence Check Mode ConvCheckMode   .... Total+1el-Energy
 Convergence forced     ConvForced      .... 0
 Energy Change          TolE            ....  1.000e-08 Eh
 1-El. energy change                    ....  1.000e-05 Eh
 Orbital Gradient       TolG            ....  1.000e-05
 Orbital Rotation angle TolX            ....  1.000e-05
 DIIS Error             TolErr          ....  5.000e-07


Diagonalization of the overlap matrix:
Smallest eigenvalue                        ... 1.145e-05
Time for diagonalization                   ...    0.041 sec
Threshold for overlap eigenvalues          ... 1.000e-08
Number of eigenvalues below threshold      ... 0
Time for construction of square roots      ...    0.023 sec
Total time needed                          ...    0.067 sec

Time for model grid setup =    0.091 sec

------------------------------
INITIAL GUESS: MODEL POTENTIAL
------------------------------
Loading Hartree-Fock densities                     ... done
Calculating cut-offs                               ... done
Initializing the effective Hamiltonian             ... done
Setting up the integral package (SHARK)            ... done
Starting the Coulomb interaction                   ... done (   0.2 sec)
Reading the grid                                   ... done
Mapping shells                                     ... done
Starting the XC term evaluation                    ... done (   0.2 sec)
  promolecular density results
     # of electrons  =     90.997344487
     EX              =   -103.429902966
     EC              =      0.002037135
     EX+EC           =   -103.427865830
Transforming the Hamiltonian                       ... done (   0.0 sec)
Diagonalizing the Hamiltonian                      ... done (   0.0 sec)
Back transforming the eigenvectors                 ... done (   0.0 sec)
Now organizing SCF variables                       ... done
                      ------------------
                      INITIAL GUESS DONE (   0.5 sec)
                      ------------------
-------------------
DFT GRID GENERATION
-------------------

General Integration Accuracy     IntAcc      ... 4.388
Radial Grid Type                 RadialGrid  ... OptM3 with GC (2021)
Angular Grid (max. ang.)         AngularGrid ... 4 (Lebedev-302)
Angular grid pruning method      GridPruning ... 4 (adaptive)
Weight generation scheme         WeightScheme... Becke
Basis function cutoff            BFCut       ... 1.0000e-11
Integration weight cutoff        WCut        ... 1.0000e-14
Angular grids for H and He will be reduced by one unit
Partially contracted basis set               ... off
Rotationally invariant grid construction     ... off

Total number of grid points                  ...    76415
Total number of batches                      ...     1202
Average number of points per batch           ...       63
Average number of grid points per atom       ...     5878
Time for grid setup =    0.394 sec

--------------------
COSX GRID GENERATION
--------------------

GRIDX 1
-------
General Integration Accuracy     IntAcc      ... 3.816
Radial Grid Type                 RadialGrid  ... OptM3 with GC (2021)
Angular Grid (max. ang.)         AngularGrid ... 1 (Lebedev-50)
Angular grid pruning method      GridPruning ... 4 (adaptive)
Weight generation scheme         WeightScheme... Becke
Basis function cutoff            BFCut       ... 1.0000e-11
Integration weight cutoff        WCut        ... 1.0000e-14
Angular grids for H and He will be reduced by one unit
Partially contracted basis set               ... on
Rotationally invariant grid construction     ... off

Total number of grid points                  ...     9461
Total number of batches                      ...      153
Average number of points per batch           ...       61
Average number of grid points per atom       ...      728
UseSFitting                                  ... on

GRIDX 2
-------
General Integration Accuracy     IntAcc      ... 4.020
Radial Grid Type                 RadialGrid  ... OptM3 with GC (2021)
Angular Grid (max. ang.)         AngularGrid ... 2 (Lebedev-110)
Angular grid pruning method      GridPruning ... 4 (adaptive)
Weight generation scheme         WeightScheme... Becke
Basis function cutoff            BFCut       ... 1.0000e-11
Integration weight cutoff        WCut        ... 1.0000e-14
Angular grids for H and He will be reduced by one unit
Partially contracted basis set               ... on
Rotationally invariant grid construction     ... off

Total number of grid points                  ...    24296
Total number of batches                      ...      385
Average number of points per batch           ...       63
Average number of grid points per atom       ...     1869
UseSFitting                                  ... on

GRIDX 3
-------
General Integration Accuracy     IntAcc      ... 4.338
Radial Grid Type                 RadialGrid  ... OptM3 with GC (2021)
Angular Grid (max. ang.)         AngularGrid ... 3 (Lebedev-194)
Angular grid pruning method      GridPruning ... 4 (adaptive)
Weight generation scheme         WeightScheme... Becke
Basis function cutoff            BFCut       ... 1.0000e-11
Integration weight cutoff        WCut        ... 1.0000e-14
Angular grids for H and He will be reduced by one unit
Partially contracted basis set               ... on
Rotationally invariant grid construction     ... off

Total number of grid points                  ...    54550
Total number of batches                      ...      860
Average number of points per batch           ...       63
Average number of grid points per atom       ...     4196
UseSFitting                                  ... on

Time for X-Grid setup             =    0.681 sec

 re-compute Schwartz prescreening matrix in partically contracted basis (1) ...done (   0.086 sec)
--------------
SCF ITERATIONS
--------------
ITER       Energy         Delta-E        Max-DP      RMS-DP      [F,P]     Damp
               ***  Starting incremental Fock matrix formation  ***
  0  -1241.2114620273   0.000000000000 0.06447125  0.00083412  0.3279690 0.7000
  1  -1241.4168223601  -0.205360332831 0.04574576  0.00060099  0.1757292 0.7000
                               ***Turning on DIIS***
  2  -1241.5107617099  -0.093939349786 0.07113306  0.00118053  0.0766609 0.0000
  3  -1241.6639885514  -0.153226841499 0.03548970  0.00039056  0.0812151 0.0000
  4  -1241.6916784396  -0.027689888132 0.00973028  0.00012192  0.0101621 0.0000
  5  -1241.6927785181  -0.001100078559 0.00603873  0.00005685  0.0042161 0.0000
                      *** Initiating the SOSCF procedure ***
                           *** Shutting down DIIS ***
                      *** Re-Reading the Fockian *** 
                      *** Removing any level shift *** 
ITER      Energy       Delta-E        Grad      Rot      Max-DP    RMS-DP
  6  -1241.69307517  -0.0002966480  0.000924  0.000924  0.002277  0.000031
               *** Restarting incremental Fock matrix formation ***
  7  -1241.69316478  -0.0000896165  0.000421  0.001012  0.009278  0.000104
  8  -1241.69318607  -0.0000212881  0.000217  0.001085  0.005617  0.000058
  9  -1241.69318989  -0.0000038167  0.000114  0.000201  0.003472  0.000039
 10  -1241.69319196  -0.0000020749  0.000017  0.000045  0.000731  0.000007
 11  -1241.69319201  -0.0000000444  0.000014  0.000017  0.000203  0.000002
 12  -1241.69319204  -0.0000000343  0.000003  0.000011  0.000266  0.000002
                  ***Gradient check signals convergence***
              ***Rediagonalizing the Fockian in SOSCF/NRSCF***

               *****************************************************
               *                     SUCCESS                       *
               *           SCF CONVERGED AFTER  13 CYCLES          *
               *****************************************************

Old exchange energy                            =    -73.291546843 Eh
New exchange energy                            =    -73.291545457 Eh
Exchange energy change after final integration =      0.000001386 Eh
Total energy after final integration           =  -1241.693190659 Eh
Final COS-X integration done in                =     9.586 sec

----------------
TOTAL SCF ENERGY
----------------

Total Energy       :        -1241.69319066 Eh          -33788.18948 eV

Components:
Nuclear Repulsion  :          744.66160799 Eh           20263.27252 eV
Electronic Energy  :        -1986.35479865 Eh          -54051.46199 eV
One Electron Energy:        -3204.15608034 Eh          -87189.51958 eV
Two Electron Energy:         1217.80128170 Eh           33138.05758 eV
Max COSX asymmetry :            0.00001955 Eh               0.00053 eV

Virial components:
Potential Energy   :        -2480.56036517 Eh          -67499.47914 eV
Kinetic Energy     :         1238.86717451 Eh           33711.28967 eV
Virial Ratio       :            2.00228113


DFT components:
N(Alpha)           :       46.000070720480 electrons
N(Beta)            :       46.000070720480 electrons
N(Total)           :       92.000141440960 electrons
E(X)               :      -31.313850590704 Eh       
E(C)               :       -1.602378666837 Eh       
E(XC)              :      -32.916229257541 Eh       
DFET-embed. en.    :        0.000000000000 Eh       

---------------
SCF CONVERGENCE
---------------

  Last Energy change         ...   -4.8426e-09  Tolerance :   1.0000e-08
  Last MAX-Density change    ...    4.2188e-15  Tolerance :   1.0000e-07
  Last RMS-Density change    ...    1.9276e-17  Tolerance :   5.0000e-09
  Last Orbital Gradient      ...    1.9946e-06  Tolerance :   1.0000e-05
  Last Orbital Rotation      ...    2.7268e-06  Tolerance :   1.0000e-05

             **** THE GBW FILE WAS UPDATED (A.23.avtz.gbw) ****
             **** DENSITY A.23.avtz.scfp WAS UPDATED ****
             **** ENERGY FILE WAS UPDATED (A.23.avtz.en.tmp) ****
             **** THE GBW FILE WAS UPDATED (A.23.avtz.gbw) ****
             **** DENSITY A.23.avtz.scfp WAS UPDATED ****
----------------
ORBITAL ENERGIES
----------------

  NO   OCC          E(Eh)            E(eV) 
   0   2.0000     -90.856233     -2472.3238 
   1   2.0000     -90.730929     -2468.9141 
   2   2.0000     -19.834215      -539.7164 
   3   2.0000     -19.833133      -539.6870 
   4   2.0000     -15.027145      -408.9094 
   5   2.0000     -15.004397      -408.2904 
   6   2.0000     -15.003302      -408.2606 
   7   2.0000     -14.893019      -405.2596 
   8   2.0000     -10.828230      -294.6511 
   9   2.0000     -10.780224      -293.3448 
  10   2.0000      -8.597329      -233.9452 
  11   2.0000      -8.507493      -231.5007 
  12   2.0000      -6.384321      -173.7262 
  13   2.0000      -6.381515      -173.6498 
  14   2.0000      -6.380581      -173.6244 
  15   2.0000      -6.289968      -171.1587 
  16   2.0000      -6.287298      -171.0861 
  17   2.0000      -6.286694      -171.0696 
  18   2.0000      -1.147563       -31.2268 
  19   2.0000      -1.122118       -30.5344 
  20   2.0000      -1.028993       -28.0003 
  21   2.0000      -1.024665       -27.8825 
  22   2.0000      -0.892572       -24.2881 
  23   2.0000      -0.870147       -23.6779 
  24   2.0000      -0.842669       -22.9302 
  25   2.0000      -0.653491       -17.7824 
  26   2.0000      -0.613421       -16.6920 
  27   2.0000      -0.569021       -15.4839 
  28   2.0000      -0.526111       -14.3162 
  29   2.0000      -0.499413       -13.5897 
  30   2.0000      -0.443490       -12.0680 
  31   2.0000      -0.430127       -11.7044 
  32   2.0000      -0.426598       -11.6083 
  33   2.0000      -0.407195       -11.0803 
  34   2.0000      -0.390900       -10.6369 
  35   2.0000      -0.339452        -9.2370 
  36   2.0000      -0.301015        -8.1910 
  37   2.0000      -0.299010        -8.1365 
  38   2.0000      -0.268944        -7.3183 
  39   2.0000      -0.256087        -6.9685 
  40   2.0000      -0.249589        -6.7917 
  41   2.0000      -0.242268        -6.5925 
  42   2.0000      -0.232722        -6.3327 
  43   2.0000      -0.202012        -5.4970 
  44   2.0000      -0.201060        -5.4711 
  45   2.0000      -0.167260        -4.5514 
  46   0.0000       0.084094         2.2883 
  47   0.0000       0.108495         2.9523 
  48   0.0000       0.133189         3.6243 
  49   0.0000       0.145740         3.9658 
  50   0.0000       0.154869         4.2142 
  51   0.0000       0.166689         4.5358 
  52   0.0000       0.171914         4.6780 
  53   0.0000       0.179660         4.8888 
  54   0.0000       0.186516         5.0754 
  55   0.0000       0.188092         5.1182 
  56   0.0000       0.191534         5.2119 
  57   0.0000       0.195693         5.3251 
  58   0.0000       0.201350         5.4790 
  59   0.0000       0.205842         5.6012 
  60   0.0000       0.217182         5.9098 
  61   0.0000       0.220373         5.9967 
  62   0.0000       0.227092         6.1795 
  63   0.0000       0.235018         6.3952 
  64   0.0000       0.237715         6.4686 
  65   0.0000       0.246269         6.7013 
  66   0.0000       0.248226         6.7546 
  67   0.0000       0.254370         6.9218 
  68   0.0000       0.258306         7.0289 
  69   0.0000       0.266517         7.2523 
  70   0.0000       0.270027         7.3478 
  71   0.0000       0.279166         7.5965 
  72   0.0000       0.288640         7.8543 
  73   0.0000       0.294321         8.0089 
  74   0.0000       0.302211         8.2236 
  75   0.0000       0.305661         8.3174 
  76   0.0000       0.315523         8.5858 
  77   0.0000       0.321597         8.7511 
  78   0.0000       0.325642         8.8612 
  79   0.0000       0.329909         8.9773 
  80   0.0000       0.334145         9.0926 
  81   0.0000       0.344108         9.3636 
  82   0.0000       0.353856         9.6289 
  83   0.0000       0.354402         9.6438 
  84   0.0000       0.363825         9.9002 
  85   0.0000       0.365974         9.9587 
  86   0.0000       0.367902        10.0111 
  87   0.0000       0.374214        10.1829 
  88   0.0000       0.383642        10.4394 
  89   0.0000       0.389352        10.5948 
  90   0.0000       0.396181        10.7806 
  91   0.0000       0.404333        11.0025 
  92   0.0000       0.405878        11.0445 
  93   0.0000       0.408725        11.1220 
  94   0.0000       0.419228        11.4078 
  95   0.0000       0.422909        11.5079 
  96   0.0000       0.426738        11.6121 
  97   0.0000       0.435486        11.8502 
  98   0.0000       0.444625        12.0989 
  99   0.0000       0.446540        12.1510 
 100   0.0000       0.459080        12.4922 
 101   0.0000       0.463768        12.6198 
 102   0.0000       0.471252        12.8234 
 103   0.0000       0.473679        12.8894 
 104   0.0000       0.483635        13.1604 
 105   0.0000       0.486017        13.2252 
 106   0.0000       0.493842        13.4381 
 107   0.0000       0.497784        13.5454 
 108   0.0000       0.508782        13.8447 
 109   0.0000       0.514295        13.9947 
 110   0.0000       0.519589        14.1387 
 111   0.0000       0.521752        14.1976 
 112   0.0000       0.533960        14.5298 
 113   0.0000       0.542354        14.7582 
 114   0.0000       0.545923        14.8553 
 115   0.0000       0.552224        15.0268 
 116   0.0000       0.557438        15.1686 
 117   0.0000       0.567680        15.4474 
 118   0.0000       0.577432        15.7127 
 119   0.0000       0.585653        15.9364 
 120   0.0000       0.596084        16.2203 
 121   0.0000       0.603270        16.4158 
 122   0.0000       0.621208        16.9039 
 123   0.0000       0.623666        16.9708 
 124   0.0000       0.627442        17.0736 
 125   0.0000       0.632117        17.2008 
 126   0.0000       0.637536        17.3482 
 127   0.0000       0.648277        17.6405 
 128   0.0000       0.652190        17.7470 
 129   0.0000       0.665853        18.1188 
 130   0.0000       0.680333        18.5128 
 131   0.0000       0.685639        18.6572 
 132   0.0000       0.688651        18.7392 
 133   0.0000       0.699368        19.0308 
 134   0.0000       0.709099        19.2956 
 135   0.0000       0.711409        19.3584 
 136   0.0000       0.717637        19.5279 
 137   0.0000       0.725768        19.7491 
 138   0.0000       0.729996        19.8642 
 139   0.0000       0.734556        19.9883 
 140   0.0000       0.739959        20.1353 
 141   0.0000       0.749692        20.4002 
 142   0.0000       0.758603        20.6426 
 143   0.0000       0.769742        20.9457 
 144   0.0000       0.774542        21.0764 
 145   0.0000       0.780710        21.2442 
 146   0.0000       0.791176        21.5290 
 147   0.0000       0.796574        21.6759 
 148   0.0000       0.798374        21.7249 
 149   0.0000       0.808254        21.9937 
 150   0.0000       0.839042        22.8315 
 151   0.0000       0.842399        22.9228 
 152   0.0000       0.853466        23.2240 
 153   0.0000       0.859346        23.3840 
 154   0.0000       0.865394        23.5486 
 155   0.0000       0.868117        23.6227 
 156   0.0000       0.875018        23.8104 
 157   0.0000       0.886248        24.1160 
 158   0.0000       0.899224        24.4691 
 159   0.0000       0.906839        24.6764 
 160   0.0000       0.910031        24.7632 
 161   0.0000       0.915580        24.9142 
 162   0.0000       0.929542        25.2941 
 163   0.0000       0.935209        25.4483 
 164   0.0000       0.935739        25.4627 
 165   0.0000       0.936935        25.4953 
 166   0.0000       0.953728        25.9523 
 167   0.0000       0.955610        26.0035 
 168   0.0000       0.972019        26.4500 
 169   0.0000       0.978557        26.6279 
 170   0.0000       0.985997        26.8303 
 171   0.0000       0.994490        27.0615 
 172   0.0000       0.998438        27.1689 
 173   0.0000       1.002204        27.2714 
 174   0.0000       1.014079        27.5945 
 175   0.0000       1.031670        28.0732 
 176   0.0000       1.037470        28.2310 
 177   0.0000       1.042180        28.3592 
 178   0.0000       1.049811        28.5668 
 179   0.0000       1.052545        28.6412 
 180   0.0000       1.056041        28.7363 
 181   0.0000       1.073040        29.1989 
 182   0.0000       1.084292        29.5051 
 183   0.0000       1.087628        29.5959 
 184   0.0000       1.094500        29.7829 
 185   0.0000       1.098571        29.8936 
 186   0.0000       1.106350        30.1053 
 187   0.0000       1.116456        30.3803 
 188   0.0000       1.125767        30.6337 
 189   0.0000       1.130295        30.7569 
 190   0.0000       1.134904        30.8823 
 191   0.0000       1.142527        31.0897 
 192   0.0000       1.145274        31.1645 
 193   0.0000       1.153446        31.3869 
 194   0.0000       1.167934        31.7811 
 195   0.0000       1.174199        31.9516 
 196   0.0000       1.181932        32.1620 
 197   0.0000       1.188034        32.3281 
 198   0.0000       1.195469        32.5304 
 199   0.0000       1.198970        32.6256 
 200   0.0000       1.208012        32.8717 
 201   0.0000       1.222553        33.2674 
 202   0.0000       1.222943        33.2780 
 203   0.0000       1.233157        33.5559 
 204   0.0000       1.246118        33.9086 
 205   0.0000       1.249741        34.0072 
 206   0.0000       1.261841        34.3364 
 207   0.0000       1.266955        34.4756 
 208   0.0000       1.276315        34.7303 
 209   0.0000       1.286066        34.9956 
 210   0.0000       1.298251        35.3272 
 211   0.0000       1.310280        35.6545 
 212   0.0000       1.313101        35.7313 
 213   0.0000       1.323300        36.0088 
 214   0.0000       1.332123        36.2489 
 215   0.0000       1.341527        36.5048 
 216   0.0000       1.347573        36.6693 
 217   0.0000       1.360902        37.0320 
 218   0.0000       1.372450        37.3463 
 219   0.0000       1.382884        37.6302 
 220   0.0000       1.395789        37.9813 
 221   0.0000       1.399010        38.0690 
 222   0.0000       1.407685        38.3051 
 223   0.0000       1.420855        38.6634 
 224   0.0000       1.424001        38.7490 
 225   0.0000       1.439886        39.1813 
 226   0.0000       1.446907        39.3723 
 227   0.0000       1.456791        39.6413 
 228   0.0000       1.460433        39.7404 
 229   0.0000       1.473195        40.0877 
 230   0.0000       1.482699        40.3463 
 231   0.0000       1.486155        40.4403 
 232   0.0000       1.498449        40.7749 
 233   0.0000       1.509563        41.0773 
 234   0.0000       1.510496        41.1027 
 235   0.0000       1.516705        41.2716 
 236   0.0000       1.531636        41.6779 
 237   0.0000       1.536446        41.8088 
 238   0.0000       1.544173        42.0191 
 239   0.0000       1.584757        43.1234 
 240   0.0000       1.587588        43.2005 
 241   0.0000       1.604415        43.6584 
 242   0.0000       1.618562        44.0433 
 243   0.0000       1.632517        44.4231 
 244   0.0000       1.635193        44.4959 
 245   0.0000       1.654291        45.0155 
 246   0.0000       1.658507        45.1303 
 247   0.0000       1.674387        45.5624 
 248   0.0000       1.685530        45.8656 
 249   0.0000       1.686974        45.9049 
 250   0.0000       1.700152        46.2635 
 251   0.0000       1.714072        46.6423 
 252   0.0000       1.728415        47.0326 
 253   0.0000       1.732832        47.1528 
 254   0.0000       1.762730        47.9663 
 255   0.0000       1.772485        48.2318 
 256   0.0000       1.786126        48.6030 
 257   0.0000       1.809466        49.2381 
 258   0.0000       1.819740        49.5176 
 259   0.0000       1.850582        50.3569 
 260   0.0000       1.871099        50.9152 
 261   0.0000       1.876825        51.0710 
 262   0.0000       1.883899        51.2635 
 263   0.0000       1.885535        51.3080 
 264   0.0000       1.899012        51.6747 
 265   0.0000       1.912111        52.0312 
 266   0.0000       1.922643        52.3178 
 267   0.0000       1.926865        52.4327 
 268   0.0000       1.945836        52.9489 
 269   0.0000       1.965615        53.4871 
 270   0.0000       1.981978        53.9324 
 271   0.0000       1.989636        54.1407 
 272   0.0000       1.997195        54.3464 
 273   0.0000       2.005377        54.5691 
 274   0.0000       2.024498        55.0894 
 275   0.0000       2.026974        55.1568 
 276   0.0000       2.053744        55.8852 
 277   0.0000       2.071177        56.3596 
 278   0.0000       2.092649        56.9439 
 279   0.0000       2.097840        57.0851 
 280   0.0000       2.098038        57.0905 
 281   0.0000       2.119732        57.6808 
 282   0.0000       2.125448        57.8364 
 283   0.0000       2.135170        58.1009 
 284   0.0000       2.139333        58.2142 
 285   0.0000       2.156932        58.6931 
 286   0.0000       2.174837        59.1803 
 287   0.0000       2.180050        59.3222 
 288   0.0000       2.198263        59.8178 
 289   0.0000       2.205475        60.0140 
 290   0.0000       2.214315        60.2546 
 291   0.0000       2.221001        60.4365 
 292   0.0000       2.235865        60.8410 
 293   0.0000       2.245145        61.0935 
 294   0.0000       2.252472        61.2929 
 295   0.0000       2.255740        61.3818 
 296   0.0000       2.265949        61.6596 
 297   0.0000       2.286378        62.2155 
 298   0.0000       2.294432        62.4347 
 299   0.0000       2.314850        62.9903 
 300   0.0000       2.323098        63.2147 
 301   0.0000       2.330666        63.4206 
 302   0.0000       2.338044        63.6214 
 303   0.0000       2.345359        63.8205 
 304   0.0000       2.357155        64.1414 
 305   0.0000       2.367612        64.4260 
 306   0.0000       2.375268        64.6343 
 307   0.0000       2.395591        65.1874 
 308   0.0000       2.400041        65.3084 
 309   0.0000       2.414467        65.7010 
 310   0.0000       2.429897        66.1209 
 311   0.0000       2.435439        66.2717 
 312   0.0000       2.439855        66.3918 
 313   0.0000       2.460236        66.9464 
 314   0.0000       2.471627        67.2564 
 315   0.0000       2.474192        67.3262 
 316   0.0000       2.487731        67.6946 
 317   0.0000       2.493203        67.8435 
 318   0.0000       2.505071        68.1664 
 319   0.0000       2.515658        68.4545 
 320   0.0000       2.529667        68.8357 
 321   0.0000       2.538076        69.0646 
 322   0.0000       2.541503        69.1578 
 323   0.0000       2.553314        69.4792 
 324   0.0000       2.565818        69.8195 
 325   0.0000       2.579559        70.1934 
 326   0.0000       2.586518        70.3827 
 327   0.0000       2.594720        70.6059 
 328   0.0000       2.606933        70.9382 
 329   0.0000       2.614026        71.1313 
 330   0.0000       2.618826        71.2619 
 331   0.0000       2.639722        71.8305 
 332   0.0000       2.647803        72.0504 
 333   0.0000       2.663315        72.4725 
 334   0.0000       2.669946        72.6529 
 335   0.0000       2.687502        73.1306 
 336   0.0000       2.720169        74.0196 
 337   0.0000       2.728541        74.2474 
 338   0.0000       2.745166        74.6998 
 339   0.0000       2.756354        75.0042 
 340   0.0000       2.766640        75.2841 
 341   0.0000       2.779132        75.6240 
 342   0.0000       2.793014        76.0018 
 343   0.0000       2.813240        76.5521 
 344   0.0000       2.828374        76.9640 
 345   0.0000       2.839505        77.2669 
 346   0.0000       2.849988        77.5521 
 347   0.0000       2.860139        77.8283 
 348   0.0000       2.899635        78.9031 
 349   0.0000       2.928134        79.6786 
 350   0.0000       2.936704        79.9118 
 351   0.0000       2.944913        80.1352 
 352   0.0000       2.962030        80.6009 
 353   0.0000       2.984087        81.2011 
 354   0.0000       3.017173        82.1014 
 355   0.0000       3.024506        82.3010 
 356   0.0000       3.051866        83.0455 
 357   0.0000       3.060559        83.2820 
 358   0.0000       3.070187        83.5440 
 359   0.0000       3.088221        84.0348 
 360   0.0000       3.108266        84.5802 
 361   0.0000       3.144928        85.5779 
 362   0.0000       3.158935        85.9590 
 363   0.0000       3.190319        86.8130 
 364   0.0000       3.209677        87.3398 
 365   0.0000       3.218771        87.5872 
 366   0.0000       3.259376        88.6921 
 367   0.0000       3.287653        89.4616 
 368   0.0000       3.323692        90.4423 
 369   0.0000       3.342572        90.9560 
 370   0.0000       3.356095        91.3240 
 371   0.0000       3.403587        92.6163 
 372   0.0000       3.448241        93.8314 
 373   0.0000       3.461883        94.2026 
 374   0.0000       3.470772        94.4445 
 375   0.0000       3.481690        94.7416 
 376   0.0000       3.503861        95.3449 
 377   0.0000       3.566539        97.0504 
 378   0.0000       3.585547        97.5677 
 379   0.0000       3.630146        98.7813 
 380   0.0000       3.641740        99.0968 
 381   0.0000       3.658862        99.5627 
 382   0.0000       3.686401       100.3121 
 383   0.0000       3.707527       100.8869 
 384   0.0000       3.723390       101.3186 
 385   0.0000       3.740367       101.7806 
 386   0.0000       3.756076       102.2080 
 387   0.0000       3.787382       103.0599 
 388   0.0000       3.804018       103.5126 
 389   0.0000       3.813079       103.7591 
 390   0.0000       3.831048       104.2481 
 391   0.0000       3.841792       104.5405 
 392   0.0000       3.878827       105.5483 
 393   0.0000       3.903864       106.2295 
 394   0.0000       3.913902       106.5027 
 395   0.0000       3.936306       107.1123 
 396   0.0000       3.946623       107.3931 
 397   0.0000       3.965818       107.9154 
 398   0.0000       3.989127       108.5497 
 399   0.0000       4.002774       108.9210 
 400   0.0000       4.021072       109.4189 
 401   0.0000       4.032009       109.7166 
 402   0.0000       4.067921       110.6938 
 403   0.0000       4.082562       111.0922 
 404   0.0000       4.115695       111.9938 
 405   0.0000       4.136898       112.5707 
 406   0.0000       4.164760       113.3289 
 407   0.0000       4.206296       114.4591 
 408   0.0000       4.209295       114.5407 
 409   0.0000       4.234645       115.2306 
 410   0.0000       4.255711       115.8038 
 411   0.0000       4.274504       116.3152 
 412   0.0000       4.306951       117.1981 
 413   0.0000       4.310534       117.2956 
 414   0.0000       4.326458       117.7289 
 415   0.0000       4.349712       118.3617 
 416   0.0000       4.367138       118.8359 
 417   0.0000       4.401054       119.7588 
 418   0.0000       4.416304       120.1737 
 419   0.0000       4.443146       120.9042 
 420   0.0000       4.452474       121.1580 
 421   0.0000       4.482089       121.9638 
 422   0.0000       4.489561       122.1672 
 423   0.0000       4.502332       122.5147 
 424   0.0000       4.516031       122.8874 
 425   0.0000       4.549002       123.7846 
 426   0.0000       4.593801       125.0037 
 427   0.0000       4.607275       125.3703 
 428   0.0000       4.651645       126.5777 
 429   0.0000       4.654796       126.6635 
 430   0.0000       4.672468       127.1443 
 431   0.0000       4.694159       127.7346 
 432   0.0000       4.732317       128.7729 
 433   0.0000       4.764192       129.6402 
 434   0.0000       4.776790       129.9831 
 435   0.0000       4.810936       130.9122 
 436   0.0000       4.839634       131.6931 
 437   0.0000       4.857475       132.1786 
 438   0.0000       4.893678       133.1637 
 439   0.0000       4.912957       133.6883 
 440   0.0000       4.924345       133.9982 
 441   0.0000       4.937973       134.3691 
 442   0.0000       4.982421       135.5786 
 443   0.0000       4.986835       135.6987 
 444   0.0000       5.026147       136.7684 
 445   0.0000       5.059079       137.6645 
 446   0.0000       5.061428       137.7285 
 447   0.0000       5.118652       139.2856 
 448   0.0000       5.127135       139.5164 
 449   0.0000       5.162210       140.4709 
 450   0.0000       5.183520       141.0508 
 451   0.0000       5.187836       141.1682 
 452   0.0000       5.226613       142.2234 
 453   0.0000       5.246967       142.7772 
 454   0.0000       5.271949       143.4570 
 455   0.0000       5.278970       143.6481 
 456   0.0000       5.305558       144.3716 
 457   0.0000       5.372714       146.1990 
 458   0.0000       5.405438       147.0894 
 459   0.0000       5.409368       147.1964 
 460   0.0000       5.512760       150.0098 
 461   0.0000       5.534791       150.6093 
 462   0.0000       5.559448       151.2803 
 463   0.0000       5.568391       151.5236 
 464   0.0000       5.604074       152.4946 
 465   0.0000       5.624339       153.0460 
 466   0.0000       5.641217       153.5053 
 467   0.0000       5.672759       154.3636 
 468   0.0000       5.684704       154.6887 
 469   0.0000       5.709142       155.3536 
 470   0.0000       5.721326       155.6852 
 471   0.0000       5.736463       156.0971 
 472   0.0000       5.761525       156.7791 
 473   0.0000       5.783390       157.3740 
 474   0.0000       5.798114       157.7747 
 475   0.0000       5.819602       158.3594 
 476   0.0000       5.881384       160.0406 
 477   0.0000       5.900030       160.5480 
 478   0.0000       5.906052       160.7118 
 479   0.0000       5.958791       162.1470 
 480   0.0000       5.984808       162.8549 
 481   0.0000       6.036828       164.2704 
 482   0.0000       6.057880       164.8433 
 483   0.0000       6.069082       165.1481 
 484   0.0000       6.102631       166.0610 
 485   0.0000       6.154404       167.4699 
 486   0.0000       6.164264       167.7382 
 487   0.0000       6.185093       168.3049 
 488   0.0000       6.192058       168.4945 
 489   0.0000       6.196661       168.6197 
 490   0.0000       6.253022       170.1534 
 491   0.0000       6.389895       173.8779 
 492   0.0000       6.463550       175.8821 
 493   0.0000       6.485735       176.4858 
 494   0.0000       6.629733       180.4042 
 495   0.0000       6.661409       181.2662 
 496   0.0000       6.686065       181.9371 
 497   0.0000       6.700394       182.3270 
 498   0.0000       6.734381       183.2518 
 499   0.0000       6.758564       183.9099 
 500   0.0000       6.779652       184.4837 
 501   0.0000       6.814745       185.4386 
 502   0.0000       6.846558       186.3043 
 503   0.0000       6.863809       186.7737 
 504   0.0000       6.873514       187.0378 
 505   0.0000       6.895815       187.6447 
 506   0.0000       6.915539       188.1814 
 507   0.0000       6.937054       188.7668 
 508   0.0000       6.965034       189.5282 
 509   0.0000       6.987334       190.1350 
 510   0.0000       7.008675       190.7158 
 511   0.0000       7.021236       191.0575 
 512   0.0000       7.075205       192.5261 
 513   0.0000       7.110287       193.4807 
 514   0.0000       7.127099       193.9382 
 515   0.0000       7.234802       196.8690 
 516   0.0000       7.238876       196.9798 
 517   0.0000       7.287559       198.3046 
 518   0.0000       7.297640       198.5789 
 519   0.0000       7.494658       203.9400 
 520   0.0000       7.582696       206.3356 
 521   0.0000       7.602884       206.8850 
 522   0.0000       7.639651       207.8855 
 523   0.0000       7.653561       208.2640 
 524   0.0000       7.710514       209.8138 
 525   0.0000       7.742123       210.6739 
 526   0.0000       7.762328       211.2237 
 527   0.0000       8.098339       220.3670 
 528   0.0000      12.254519       333.4624 
 529   0.0000      12.616228       343.3050 
 530   0.0000      13.507850       367.5673 
 531   0.0000      14.101237       383.7142 
 532   0.0000      14.322469       389.7342 
 533   0.0000      15.659845       426.1260 
 534   0.0000      15.982135       434.8960 
 535   0.0000      16.339019       444.6073 
 536   0.0000      18.299327       497.9500 

                    ********************************
                    * MULLIKEN POPULATION ANALYSIS *
                    ********************************

-----------------------
MULLIKEN ATOMIC CHARGES
-----------------------
   0 C :    0.296875
   1 C :    0.357171
   2 N :   -0.453937
   3 S :   -0.018471
   4 S :    2.161250
   5 O :   -0.987795
   6 O :   -0.982549
   7 N :   -1.037950
   8 H :    0.136498
   9 N :   -0.401401
  10 N :   -0.348033
  11 H :    0.117943
  12 H :    0.160398
Sum of atomic charges:   -1.0000000

--------------------------------
MULLIKEN REDUCED ORBITAL CHARGES
--------------------------------
  0 C s       :     3.270683  s :     3.270683
      pz      :     0.837076  p :     2.400732
      px      :     0.687430
      py      :     0.876227
      dz2     :     0.035334  d :     0.031968
      dxz     :    -0.011651
      dyz     :    -0.037112
      dx2y2   :     0.058609
      dxy     :    -0.013213
      f0      :     0.000797  f :    -0.000259
      f+1     :     0.000171
      f-1     :     0.002442
      f+2     :    -0.000898
      f-2     :     0.002934
      f+3     :    -0.003376
      f-3     :    -0.002330
  1 C s       :     3.314092  s :     3.314092
      pz      :     0.781501  p :     2.304286
      px      :     0.688589
      py      :     0.834197
      dz2     :     0.024395  d :     0.020032
      dxz     :     0.020996
      dyz     :    -0.004489
      dx2y2   :     0.004121
      dxy     :    -0.024990
      f0      :     0.001638  f :     0.004419
      f+1     :     0.002400
      f-1     :     0.003051
      f+2     :     0.002022
      f-2     :     0.002347
      f+3     :    -0.002799
      f-3     :    -0.004240
  2 N s       :     3.690014  s :     3.690014
      pz      :     1.496484  p :     3.697588
      px      :     1.037602
      py      :     1.163502
      dz2     :     0.008178  d :     0.061674
      dxz     :     0.017919
      dyz     :     0.005043
      dx2y2   :     0.013315
      dxy     :     0.017219
      f0      :     0.000400  f :     0.004662
      f+1     :     0.000968
      f-1     :     0.000627
      f+2     :     0.000014
      f-2     :     0.000547
      f+3     :     0.000052
      f-3     :     0.002053
  3 S s       :     5.862784  s :     5.862784
      pz      :     3.540010  p :    10.028706
      px      :     3.042605
      py      :     3.446091
      dz2     :     0.012177  d :     0.121106
      dxz     :     0.046970
      dyz     :     0.007440
      dx2y2   :     0.001008
      dxy     :     0.053510
      f0      :     0.002114  f :     0.005876
      f+1     :     0.002047
      f-1     :    -0.000001
      f+2     :    -0.001211
      f-2     :     0.001937
      f+3     :     0.001757
      f-3     :    -0.000767
  4 S s       :     4.816609  s :     4.816609
      pz      :     2.654819  p :     8.018201
      px      :     2.692260
      py      :     2.671122
      dz2     :     0.195904  d :     0.908522
      dxz     :     0.130066
      dyz     :     0.162892
      dx2y2   :     0.218244
      dxy     :     0.201415
      f0      :     0.022001  f :     0.095418
      f+1     :     0.015253
      f-1     :     0.022550
      f+2     :     0.014995
      f-2     :     0.006243
      f+3     :     0.002224
      f-3     :     0.012151
  5 O s       :     3.973953  s :     3.973953
      pz      :     1.357212  p :     4.945388
      px      :     1.826596
      py      :     1.761580
      dz2     :     0.017248  d :     0.061496
      dxz     :     0.017893
      dyz     :     0.019207
      dx2y2   :     0.003477
      dxy     :     0.003671
      f0      :     0.002023  f :     0.006957
      f+1     :     0.001604
      f-1     :     0.001406
      f+2     :     0.000847
      f-2     :     0.000860
      f+3     :     0.000072
      f-3     :     0.000146
  6 O s       :     3.975045  s :     3.975045
      pz      :     1.543311  p :     4.941283
      px      :     1.825588
      py      :     1.572385
      dz2     :     0.015438  d :     0.059183
      dxz     :     0.009666
      dyz     :     0.016805
      dx2y2   :     0.009403
      dxy     :     0.007872
      f0      :     0.001458  f :     0.007037
      f+1     :     0.000556
      f-1     :     0.001354
      f+2     :     0.000962
      f-2     :     0.001521
      f+3     :     0.000698
      f-3     :     0.000487
  7 N s       :     3.921597  s :     3.921597
      pz      :     1.340744  p :     4.016508
      px      :     1.414923
      py      :     1.260841
      dz2     :     0.016155  d :     0.093358
      dxz     :     0.014810
      dyz     :     0.026052
      dx2y2   :     0.021353
      dxy     :     0.014988
      f0      :     0.000449  f :     0.006486
      f+1     :     0.000654
      f-1     :     0.001164
      f+2     :     0.000500
      f-2     :     0.000471
      f+3     :     0.001302
      f-3     :     0.001947
  8 H s       :     0.755295  s :     0.755295
      pz      :     0.008183  p :     0.089516
      px      :     0.042748
      py      :     0.038585
      dz2     :     0.005688  d :     0.018691
      dxz     :     0.005696
      dyz     :     0.002677
      dx2y2   :     0.002591
      dxy     :     0.002039
  9 N s       :     3.942296  s :     3.942296
      pz      :     1.266940  p :     3.330848
      px      :     0.882806
      py      :     1.181102
      dz2     :     0.019496  d :     0.109087
      dxz     :     0.029027
      dyz     :     0.015723
      dx2y2   :     0.011875
      dxy     :     0.032967
      f0      :     0.002880  f :     0.019171
      f+1     :     0.000784
      f-1     :     0.002129
      f+2     :     0.003691
      f-2     :     0.001654
      f+3     :     0.002896
      f-3     :     0.005137
 10 N s       :     3.930512  s :     3.930512
      pz      :     1.239301  p :     3.340579
      px      :     0.761948
      py      :     1.339331
      dz2     :     0.018817  d :     0.060465
      dxz     :     0.015199
      dyz     :     0.013049
      dx2y2   :     0.004632
      dxy     :     0.008767
      f0      :     0.002908  f :     0.016477
      f+1     :     0.000379
      f-1     :     0.001701
      f+2     :     0.003103
      f-2     :     0.000354
      f+3     :     0.002625
      f-3     :     0.005406
 11 H s       :     0.779385  s :     0.779385
      pz      :     0.045854  p :     0.080828
      px      :     0.027448
      py      :     0.007525
      dz2     :     0.000959  d :     0.021844
      dxz     :     0.002017
      dyz     :     0.007704
      dx2y2   :     0.005713
      dxy     :     0.005452
 12 H s       :     0.737314  s :     0.737314
      pz      :     0.021657  p :     0.080849
      px      :     0.037485
      py      :     0.021707
      dz2     :     0.007663  d :     0.021439
      dxz     :     0.003283
      dyz     :     0.000691
      dx2y2   :     0.004292
      dxy     :     0.005509


                     *******************************
                     * LOEWDIN POPULATION ANALYSIS *
                     *******************************

----------------------
LOEWDIN ATOMIC CHARGES
----------------------
   0 C :   -0.863531
   1 C :   -0.919354
   2 N :    0.752256
   3 S :    1.220416
   4 S :   -0.234364
   5 O :   -0.038072
   6 O :   -0.049265
   7 N :    0.265864
   8 H :   -0.589751
   9 N :    0.032173
  10 N :    0.094453
  11 H :   -0.337470
  12 H :   -0.333354

-------------------------------
LOEWDIN REDUCED ORBITAL CHARGES
-------------------------------
  0 C s       :     2.599481  s :     2.599481
      pz      :     0.775386  p :     2.473021
      px      :     0.854278
      py      :     0.843357
      dz2     :     0.208365  d :     1.192521
      dxz     :     0.229464
      dyz     :     0.204764
      dx2y2   :     0.252667
      dxy     :     0.297260
      f0      :     0.050944  f :     0.598508
      f+1     :     0.087904
      f-1     :     0.056515
      f+2     :     0.091027
      f-2     :     0.095134
      f+3     :     0.111453
      f-3     :     0.105532
  1 C s       :     2.522467  s :     2.522467
      pz      :     0.744613  p :     2.337224
      px      :     0.802476
      py      :     0.790135
      dz2     :     0.230585  d :     1.336251
      dxz     :     0.295059
      dyz     :     0.205486
      dx2y2   :     0.321200
      dxy     :     0.283922
      f0      :     0.070210  f :     0.723411
      f+1     :     0.101415
      f-1     :     0.067159
      f+2     :     0.131639
      f-2     :     0.078561
      f+3     :     0.101590
      f-3     :     0.172835
  2 N s       :     2.684533  s :     2.684533
      pz      :     1.099455  p :     3.032825
      px      :     0.951673
      py      :     0.981697
      dz2     :     0.045813  d :     0.402955
      dxz     :     0.098684
      dyz     :     0.027069
      dx2y2   :     0.089255
      dxy     :     0.142134
      f0      :     0.010355  f :     0.127431
      f+1     :     0.021681
      f-1     :     0.005258
      f+2     :     0.022086
      f-2     :     0.011470
      f+3     :     0.022628
      f-3     :     0.033953
  3 S s       :     4.955685  s :     4.955685
      pz      :     3.137593  p :     9.030320
      px      :     2.781504
      py      :     3.111223
      dz2     :     0.071847  d :     0.519456
      dxz     :     0.123787
      dyz     :     0.064688
      dx2y2   :     0.112401
      dxy     :     0.146732
      f0      :     0.022212  f :     0.274123
      f+1     :     0.047031
      f-1     :     0.024901
      f+2     :     0.038022
      f-2     :     0.049047
      f+3     :     0.047403
      f-3     :     0.045508
  4 S s       :     4.519282  s :     4.519282
      pz      :     2.733122  p :     8.135549
      px      :     2.678982
      py      :     2.723445
      dz2     :     0.545172  d :     2.341232
      dxz     :     0.386829
      dyz     :     0.551504
      dx2y2   :     0.433305
      dxy     :     0.424422
      f0      :     0.244508  f :     1.238302
      f+1     :     0.165270
      f-1     :     0.237429
      f+2     :     0.157545
      f-2     :     0.190267
      f+3     :     0.117649
      f-3     :     0.125633
  5 O s       :     3.347812  s :     3.347812
      pz      :     1.423134  p :     4.399239
      px      :     1.494819
      py      :     1.481286
      dz2     :     0.077235  d :     0.222581
      dxz     :     0.050225
      dyz     :     0.063174
      dx2y2   :     0.013331
      dxy     :     0.018616
      f0      :     0.020006  f :     0.068441
      f+1     :     0.011845
      f-1     :     0.019291
      f+2     :     0.006700
      f-2     :     0.008129
      f+3     :     0.001108
      f-3     :     0.001362
  6 O s       :     3.336710  s :     3.336710
      pz      :     1.455522  p :     4.410378
      px      :     1.498795
      py      :     1.456061
      dz2     :     0.055299  d :     0.232439
      dxz     :     0.033129
      dyz     :     0.069425
      dx2y2   :     0.033103
      dxy     :     0.041482
      f0      :     0.010209  f :     0.069739
      f+1     :     0.004591
      f-1     :     0.018209
      f+2     :     0.013515
      f-2     :     0.012508
      f+3     :     0.006357
      f-3     :     0.004348
  7 N s       :     2.924268  s :     2.924268
      pz      :     1.183985  p :     3.370096
      px      :     1.106592
      py      :     1.079519
      dz2     :     0.050414  d :     0.325287
      dxz     :     0.039516
      dyz     :     0.085450
      dx2y2   :     0.069102
      dxy     :     0.080805
      f0      :     0.011831  f :     0.114485
      f+1     :     0.009485
      f-1     :     0.018076
      f+2     :     0.010364
      f-2     :     0.020414
      f+3     :     0.025215
      f-3     :     0.019100
  8 H s       :     0.676613  s :     0.676613
      pz      :     0.236531  p :     0.560712
      px      :     0.157619
      py      :     0.166563
      dz2     :     0.112496  d :     0.352425
      dxz     :     0.066480
      dyz     :     0.078072
      dx2y2   :     0.043579
      dxy     :     0.051799
  9 N s       :     2.856423  s :     2.856423
      pz      :     1.023123  p :     3.099164
      px      :     1.008007
      py      :     1.068034
      dz2     :     0.086892  d :     0.707765
      dxz     :     0.158636
      dyz     :     0.092301
      dx2y2   :     0.169110
      dxy     :     0.200826
      f0      :     0.034412  f :     0.304475
      f+1     :     0.027342
      f-1     :     0.029100
      f+2     :     0.057435
      f-2     :     0.027924
      f+3     :     0.048650
      f-3     :     0.079611
 10 N s       :     2.843282  s :     2.843282
      pz      :     1.022201  p :     3.091839
      px      :     0.969081
      py      :     1.100556
      dz2     :     0.089291  d :     0.674562
      dxz     :     0.169674
      dyz     :     0.076247
      dx2y2   :     0.173381
      dxy     :     0.165970
      f0      :     0.038499  f :     0.295864
      f+1     :     0.026787
      f-1     :     0.023511
      f+2     :     0.057031
      f-2     :     0.027389
      f+3     :     0.056294
      f-3     :     0.066352
 11 H s       :     0.607118  s :     0.607118
      pz      :     0.138196  p :     0.434781
      px      :     0.117891
      py      :     0.178694
      dz2     :     0.025689  d :     0.295571
      dxz     :     0.023011
      dyz     :     0.083743
      dx2y2   :     0.096077
      dxy     :     0.067050
 12 H s       :     0.596544  s :     0.596544
      pz      :     0.175437  p :     0.430211
      px      :     0.116572
      py      :     0.138202
      dz2     :     0.084384  d :     0.306599
      dxz     :     0.046531
      dyz     :     0.057611
      dx2y2   :     0.070230
      dxy     :     0.047843


                      *****************************
                      * MAYER POPULATION ANALYSIS *
                      *****************************

  NA   - Mulliken gross atomic population
  ZA   - Total nuclear charge
  QA   - Mulliken gross atomic charge
  VA   - Mayer's total valence
  BVA  - Mayer's bonded valence
  FA   - Mayer's free valence

  ATOM       NA         ZA         QA         VA         BVA        FA
  0 C      5.7031     6.0000     0.2969     3.3556     3.3556     0.0000
  1 C      5.6428     6.0000     0.3572     3.3283     3.3283     0.0000
  2 N      7.4539     7.0000    -0.4539     2.7730     2.7730    -0.0000
  3 S     16.0185    16.0000    -0.0185     2.1932     2.1932     0.0000
  4 S     13.8387    16.0000     2.1613     4.6562     4.6562     0.0000
  5 O      8.9878     8.0000    -0.9878     1.5299     1.5299     0.0000
  6 O      8.9825     8.0000    -0.9825     1.5027     1.5027     0.0000
  7 N      8.0379     7.0000    -1.0379     2.5753     2.5753     0.0000
  8 H      0.8635     1.0000     0.1365     1.0740     1.0740     0.0000
  9 N      7.4014     7.0000    -0.4014     1.7196     1.7196    -0.0000
 10 N      7.3480     7.0000    -0.3480     1.5796     1.5796     0.0000
 11 H      0.8821     1.0000     0.1179     1.0281     1.0281    -0.0000
 12 H      0.8396     1.0000     0.1604     1.0273     1.0273     0.0000

  Mayer bond orders larger than 0.100000
B(  0-C ,  3-S ) :   0.9225 B(  0-C ,  4-S ) :   0.7274 B(  0-C ,  7-N ) :   0.1371 
B(  0-C ,  9-N ) :   1.4645 B(  1-C ,  2-N ) :   0.8316 B(  1-C ,  3-S ) :   1.0956 
B(  1-C , 10-N ) :   1.5011 B(  2-N , 10-N ) :  -0.1022 B(  2-N , 11-H ) :   1.0338 
B(  2-N , 12-H ) :   0.9455 B(  4-S ,  5-O ) :   1.1998 B(  4-S ,  6-O ) :   1.2185 
B(  4-S ,  7-N ) :   1.2935 B(  4-S ,  8-H ) :   0.1020 B(  4-S ,  9-N ) :   0.1194 
B(  5-O ,  7-N ) :   0.1253 B(  7-N ,  8-H ) :   0.9164 

-------
TIMINGS
-------

Total SCF time: 0 days 0 hours 1 min 9 sec 

Total time                  ....      69.772 sec
Sum of individual times     ....      68.769 sec  ( 98.6%)

Fock matrix formation       ....      66.058 sec  ( 94.7%)
  Split-RI-J                ....       4.134 sec  (  6.3% of F)
  Chain of spheres X        ....      51.701 sec  ( 78.3% of F)
  XC integration            ....       8.612 sec  ( 13.0% of F)
    Basis function eval.    ....       1.364 sec  ( 15.8% of XC)
    Density eval.           ....       2.227 sec  ( 25.9% of XC)
    XC-Functional eval.     ....       0.138 sec  (  1.6% of XC)
    XC-Potential eval.      ....       3.108 sec  ( 36.1% of XC)
Diagonalization             ....       0.414 sec  (  0.6%)
Density matrix formation    ....       0.052 sec  (  0.1%)
Population analysis         ....       0.050 sec  (  0.1%)
Initial guess               ....       0.417 sec  (  0.6%)
Orbital Transformation      ....       0.000 sec  (  0.0%)
Orbital Orthonormalization  ....       0.000 sec  (  0.0%)
DIIS solution               ....       0.237 sec  (  0.3%)
SOSCF solution              ....       0.375 sec  (  0.5%)
Grid generation             ....       1.167 sec  (  1.7%)

Maximum memory used throughout the entire SCF-calculation: 118.5 MB


           ************************************************************
           *        Program running with 8 parallel MPI-processes     *
           *              working on a common directory               *
           ************************************************************

------------------------------------------------------------------------------
                                ORCA  MP2 
------------------------------------------------------------------------------

Freezing NCore=36 chemical core electrons

   <<< Use J-auxbasis for calculation of Separable RI-J derivative contributions (Dim=527) >>> 


-------------
RI-MP2 ENERGY
-------------
Dimension of the basis                    ...  537
Memory devoted to MP2                     ... 3000 MB   
Data format for buffers                   ... DOUBLE
Compression type for matrix containers    ... UNCOMPRESSED
Scaling for aa/bb pairs                   ...   2.500e-01
Scaling for ab pairs                      ...   5.300e-01
Overall scaling of the MP2 energy         ...   1.000e+00
Calculating two index integrals           ... done (    0.017 sec)
Cholesky decomposition of V**-1           ... done (    0.155 sec)

-----------------
RI-TRANSFORMATION (AUX index driven)
-----------------

Dimension of the orbital-basis         ... 537
Dimension of the aux-basis             ... 1280
Transformation of internal/external MOs...   18-  45 to   46- 536
Number Format for Storage              ... Double (8 Byte)
Integral mode                          ... Direct

First Phase: integral generation and transformation of MO indices
  Aux angular momentum 0               ... done (    0.108 sec)
  Aux angular momentum 1               ... done (    0.183 sec)
  Aux angular momentum 2               ... done (    0.277 sec)
  Aux angular momentum 3               ... done (    0.272 sec)
  Aux angular momentum 4               ... done (    0.158 sec)
Closing buffer VIA ( 0.13 GB; CompressionRatio= 1.00)
  Phase 1 completed in     1.275 sec
Second Phase: sorting and transformation of aux index

IA-Transformation
Memory available                       ... 2937 MB 
Max. # MO pairs treated in a batch     ... 4    
# of internal orbitals                 ... 28
# batches for internal orbitals        ... 1
Closing buffer IAV ( 0.13 GB; CompressionRatio= 1.00)
(ia|v) transformation done in     0.194 sec

  Phase 2 completed in     0.298 sec
RI-Integral transformation completed in     1.576 sec
Opening buffers                              ... done

Starting loop over batches of integrals:

Operator 0  - window                       ... ( 18- 45)x( 46-536)
Operator 0  - Memory available             ...  3000 MB
Operator 0  - Memory needed per MO         ...   4.8 MB
Operator 0  - Number of orbitals per batch ... 4
Operator 0  - Number of batches            ... 1

OPERATOR  0   PASS   0:  MOs    18 ...   21 +   22 ...   25 +   26 ...   29 +   30 ...   33
                            +   34 ...   37 +   38 ...   41 +   42 ...   45
  Reading integrals       ... ok
  Internal MO  20
Time spent in pair loops =     0.157 sec
Deleting buffer (Ka|jb)[aa] ...done

-----------------------------------------------
 RI-MP2 CORRELATION ENERGY:     -1.040609539 Eh
-----------------------------------------------


-------
TIMINGS
-------

Total time                :    3.326 sec
Integral trafo            :    1.590 sec ( 47.8%)
I/O of integrals          :    0.007 sec (  0.2%)
K(i,j) Operators          :    0.116 sec (  3.5%)
T(i,j) pair energies      :    0.017 sec (  0.5%)
V-calculation             :    0.017 sec (  0.5%)
V**(-1/2)                 :    0.155 sec (  4.7%)
Gamma(ia|P)               :    0.000 sec (  0.0%)
Gamma-Trafo               :    0.000 sec (  0.0%)
D(virtual)                :    0.000 sec (  0.0%)
D(internal)               :    0.000 sec (  0.0%)
W(virtual)                :    0.000 sec (  0.0%)
W(internal)               :    0.000 sec (  0.0%)
L(virtual)                :    0.000 sec (  0.0%)
L(internal)               :    0.000 sec (  0.0%)
G(D)                      :    0.000 sec (  0.0%)
G(Z)                      :    0.000 sec (  0.0%)
Z-Vector Solution         :    0.000 sec (  0.0%)
3-Index Derivative        :    0.000 sec (  0.0%)
2-Index Derivative        :    0.000 sec (  0.0%)
Separable Gradient (RIJ)  :    0.000 sec (  0.0%)
Separable Gradient (COSX) :    0.000 sec (  0.0%)


---------------------------------------
MP2 TOTAL ENERGY:    -1242.733800199 Eh
---------------------------------------

Maximum memory used throughout the entire MP2-calculation: 135.7 MB


-------------------------------------------------------------------------------
                          DFT DISPERSION CORRECTION                            
                                                                               
                              DFTD3 V3.1  Rev 1                                
                          USING Becke-Johnson damping                          
-------------------------------------------------------------------------------
The DSD-PBEP86 functional is recognized
Active option DFTDOPT                   ...         4   

molecular C6(AA) [au] = 3791.757128 


            DFT-D V3
 parameters
 s6 scaling factor         :     0.4180 
 a1 scaling factor         :     0.0000 
 s8 scaling factor         :     0.0000 
 a2 scaling factor         :     5.6500 
 ad hoc parameters k1-k3   :    16.0000     1.3333    -4.0000 

 Edisp/kcal,au: -6.989949147700  -0.011139191823 
 E6   /kcal   :  -6.989949148 
 E8   /kcal   :  -0.000000000 
 % E8         :   0.000000000 

-------------------------   ----------------
Dispersion correction           -0.011139192
-------------------------   ----------------


-------------------------   --------------------
FINAL SINGLE POINT ENERGY     -1242.744939390499
-------------------------   --------------------


                            ***************************************
                            *     ORCA property calculations      *
                            ***************************************


  WARNING: The energy has been calculated at the MP2 level but the densities
           used in the property calculations are still SCF densities
           MP2 response densities have not been calculated 
           use %mp2 Density relaxed end
           or  %mp2 Density unrelaxed end

                                    ---------------------
                                    Active property flags
                                    ---------------------
   (+) Dipole Moment


------------------------------------------------------------------------------
                       ORCA ELECTRIC PROPERTIES CALCULATION
------------------------------------------------------------------------------

Dipole Moment Calculation                       ... on
Quadrupole Moment Calculation                   ... off
Polarizability Calculation                      ... off
GBWName                                         ... A.23.avtz.gbw
Electron density                                ... A.23.avtz.scfp
The origin for moment calculation is the CENTER OF MASS  = ( 1.973565,  0.421830  0.228769)

-------------
DIPOLE MOMENT
-------------
                                X             Y             Z
Electronic contribution:      1.21691      -2.20214      -0.51712
Nuclear contribution   :     -4.92362       2.32235       0.44837
                        -----------------------------------------
Total Dipole Moment    :     -3.70671       0.12020      -0.06875
                        -----------------------------------------
Magnitude (a.u.)       :      3.70929
Magnitude (Debye)      :      9.42827



--------------------
Rotational spectrum 
--------------------
 
Rotational constants in cm-1:     0.086734     0.021857     0.019528 
Rotational constants in MHz :  2600.234669   655.260297   585.434494 

 Dipole components along the rotational axes: 
x,y,z [a.u.] :    -3.632595    -0.547849     0.512799 
x,y,z [Debye]:    -9.233324    -1.392523     1.303431 

 

Timings for individual modules:

Sum of individual times         ...       77.695 sec (=   1.295 min)
GTO integral calculation        ...        2.354 sec (=   0.039 min)   3.0 %
SCF iterations                  ...       70.871 sec (=   1.181 min)  91.2 %
MP2 module                      ...        4.469 sec (=   0.074 min)   5.8 %
                             ****ORCA TERMINATED NORMALLY****
TOTAL RUN TIME: 0 days 0 hours 1 minutes 19 seconds 652 msec
