
                                 *****************
                                 * O   R   C   A *
                                 *****************

                                            #,                                       
                                            ###                                      
                                            ####                                     
                                            #####                                    
                                            ######                                   
                                           ########,                                 
                                     ,,################,,,,,                         
                               ,,#################################,,                 
                          ,,##########################################,,             
                       ,#########################################, ''#####,          
                    ,#############################################,,   '####,        
                  ,##################################################,,,,####,       
                ,###########''''           ''''###############################       
              ,#####''   ,,,,##########,,,,          '''####'''          '####       
            ,##' ,,,,###########################,,,                        '##       
           ' ,,###''''                  '''############,,,                           
         ,,##''                                '''############,,,,        ,,,,,,###''
      ,#''                                            '''#######################'''  
     '                                                          ''''####''''         
             ,#######,   #######,   ,#######,      ##                                
            ,#'     '#,  ##    ##  ,#'     '#,    #''#        ######   ,####,        
            ##       ##  ##   ,#'  ##            #'  '#       #        #'  '#        
            ##       ##  #######   ##           ,######,      #####,   #    #        
            '#,     ,#'  ##    ##  '#,     ,#' ,#      #,         ##   #,  ,#        
             '#######'   ##     ##  '#######'  #'      '#     #####' # '####'        



                  #######################################################
                  #                        -***-                        #
                  #          Department of theory and spectroscopy      #
                  #    Directorship and core code : Frank Neese         #
                  #        Max Planck Institute fuer Kohlenforschung    #
                  #                Kaiser Wilhelm Platz 1               #
                  #                 D-45470 Muelheim/Ruhr               #
                  #                      Germany                        #
                  #                                                     #
                  #                  All rights reserved                #
                  #                        -***-                        #
                  #######################################################


                         Program Version 5.0.3 -  RELEASE  -


 With contributions from (in alphabetic order):
   Daniel Aravena         : Magnetic Suceptibility
   Michael Atanasov       : Ab Initio Ligand Field Theory (pilot matlab implementation)
   Alexander A. Auer      : GIAO ZORA, VPT2 properties, NMR spectrum
   Ute Becker             : Parallelization
   Giovanni Bistoni       : ED, misc. LED, open-shell LED, HFLD
   Martin Brehm           : Molecular dynamics
   Dmytro Bykov           : SCF Hessian
   Vijay G. Chilkuri      : MRCI spin determinant printing, contributions to CSF-ICE
   Dipayan Datta          : RHF DLPNO-CCSD density
   Achintya Kumar Dutta   : EOM-CC, STEOM-CC
   Dmitry Ganyushin       : Spin-Orbit,Spin-Spin,Magnetic field MRCI
   Miquel Garcia          : C-PCM and meta-GGA Hessian, CC/C-PCM, Gaussian charge scheme
   Yang Guo               : DLPNO-NEVPT2, F12-NEVPT2, CIM, IAO-localization
   Andreas Hansen         : Spin unrestricted coupled pair/coupled cluster methods
   Benjamin Helmich-Paris : MC-RPA, TRAH-SCF, COSX integrals
   Lee Huntington         : MR-EOM, pCC
   Robert Izsak           : Overlap fitted RIJCOSX, COSX-SCS-MP3, EOM
   Marcus Kettner         : VPT2
   Christian Kollmar      : KDIIS, OOCD, Brueckner-CCSD(T), CCSD density, CASPT2, CASPT2-K
   Simone Kossmann        : Meta GGA functionals, TD-DFT gradient, OOMP2, MP2 Hessian
   Martin Krupicka        : Initial AUTO-CI
   Lucas Lang             : DCDCAS
   Marvin Lechner         : AUTO-CI (C++ implementation), FIC-MRCC
   Dagmar Lenk            : GEPOL surface, SMD
   Dimitrios Liakos       : Extrapolation schemes; Compound Job, initial MDCI parallelization
   Dimitrios Manganas     : Further ROCIS development; embedding schemes
   Dimitrios Pantazis     : SARC Basis sets
   Anastasios Papadopoulos: AUTO-CI, single reference methods and gradients
   Taras Petrenko         : DFT Hessian,TD-DFT gradient, ASA, ECA, R-Raman, ABS, FL, XAS/XES, NRVS
   Peter Pinski           : DLPNO-MP2, DLPNO-MP2 Gradient
   Christoph Reimann      : Effective Core Potentials
   Marius Retegan         : Local ZFS, SOC
   Christoph Riplinger    : Optimizer, TS searches, QM/MM, DLPNO-CCSD(T), (RO)-DLPNO pert. Triples
   Tobias Risthaus        : Range-separated hybrids, TD-DFT gradient, RPA, STAB
   Michael Roemelt        : Original ROCIS implementation
   Masaaki Saitow         : Open-shell DLPNO-CCSD energy and density
   Barbara Sandhoefer     : DKH picture change effects
   Avijit Sen             : IP-ROCIS
   Kantharuban Sivalingam : CASSCF convergence, NEVPT2, FIC-MRCI
   Bernardo de Souza      : ESD, SOC TD-DFT
   Georgi Stoychev        : AutoAux, RI-MP2 NMR, DLPNO-MP2 response
   Willem Van den Heuvel  : Paramagnetic NMR
   Boris Wezisla          : Elementary symmetry handling
   Frank Wennmohs         : Technical directorship


 We gratefully acknowledge several colleagues who have allowed us to
 interface, adapt or use parts of their codes:
   Stefan Grimme, W. Hujo, H. Kruse, P. Pracht,  : VdW corrections, initial TS optimization,
                  C. Bannwarth, S. Ehlert          DFT functionals, gCP, sTDA/sTD-DF
   Ed Valeev, F. Pavosevic, A. Kumar             : LibInt (2-el integral package), F12 methods
   Garnet Chan, S. Sharma, J. Yang, R. Olivares  : DMRG
   Ulf Ekstrom                                   : XCFun DFT Library
   Mihaly Kallay                                 : mrcc  (arbitrary order and MRCC methods)
   Jiri Pittner, Ondrej Demel                    : Mk-CCSD
   Frank Weinhold                                : gennbo (NPA and NBO analysis)
   Christopher J. Cramer and Donald G. Truhlar   : smd solvation model
   Lars Goerigk                                  : TD-DFT with DH, B97 family of functionals
   V. Asgeirsson, H. Jonsson                     : NEB implementation
   FAccTs GmbH                                   : IRC, NEB, NEB-TS, DLPNO-Multilevel, CI-OPT
                                                   MM, QMMM, 2- and 3-layer-ONIOM, Crystal-QMMM,
                                                   LR-CPCM, SF, NACMEs, symmetry and pop. for TD-DFT,
                                                   nearIR, NL-DFT gradient (VV10), updates on ESD,
                                                   ML-optimized integration grids
   S Lehtola, MJT Oliveira, MAL Marques          : LibXC Library
   Liviu Ungur et al                             : ANISO software


 Your calculation uses the libint2 library for the computation of 2-el integrals
 For citations please refer to: http://libint.valeyev.net

 Your ORCA version has been built with support for libXC version: 5.1.0
 For citations please refer to: https://tddft.org/programs/libxc/

 This ORCA versions uses:
   CBLAS   interface :  Fast vector & matrix operations
   LAPACKE interface :  Fast linear algebra routines
   SCALAPACK package :  Parallel linear algebra routines
   Shared memory     :  Shared parallel matrices
   BLAS/LAPACK       :  OpenBLAS 0.3.15  USE64BITINT DYNAMIC_ARCH NO_AFFINITY SkylakeX SINGLE_THREADED
        Core in use  :  SkylakeX
   Copyright (c) 2011-2014, The OpenBLAS Project


Your calculation utilizes the atom-pairwise dispersion correction
with the Becke-Johnson damping scheme (D3BJ)
Cite in your paper:
S.Grimme, S.Ehrlich, L.Goerigk, J Comput Chem, (2011), 32, 1456–1465 
S.Grimme, J.Antony, S.Ehrlich and H.Krieg, J.Chem.Phys., 132, (2010), 154104 
   

================================================================================

----- Orbital basis set information -----
Your calculation utilizes the basis: aug-cc-pVTZ 
    H, B-Ne : Obtained from the ccRepo (grant-hill.group.shef.ac.uk/ccrepo) Feb. 2017
              R. A. Kendall, T. H. Dunning, Jr., R. J. Harrison, J. Chem. Phys. 96, 6796 (1992)
         He : Obtained from the ccRepo (grant-hill.group.shef.ac.uk/ccrepo) Feb. 2017
              D. E. Woon, T. H. Dunning, Jr., J. Chem. Phys. 100, 2975 (1994)
  Li-Be, Na : Obtained from the ccRepo (grant-hill.group.shef.ac.uk/ccrepo) Feb. 2017
              B. P. Prascher, D. E. Woon, K. A. Peterson, T. H. Dunning, Jr., A. K. Wilson, Theor. Chem. Acc. 128, 69 (2011)
         Mg : Obtained from the Peterson Research Group Website (tyr0.chem.wsu.edu/~kipeters) Feb. 2017
              B. P. Prascher, D. E. Woon, K. A. Peterson, T. H. Dunning, Jr., A. K. Wilson, Theor. Chem. Acc. 128, 69 (2011)
      Al-Ar : Obtained from the ccRepo (grant-hill.group.shef.ac.uk/ccrepo) Feb. 2017
              D. E. Woon, T. H. Dunning, Jr., J. Chem. Phys. 98, 1358 (1993)
      Sc-Zn : Obtained from the ccRepo (grant-hill.group.shef.ac.uk/ccrepo) Feb. 2017
              N. B. Balabanov, K. A. Peterson, J. Chem. Phys. 123, 064107 (2005)
              N. B. Balabanov, K. A. Peterson, J. Chem. Phys. 125, 074110 (2006)
      Ga-Kr : Obtained from the ccRepo (grant-hill.group.shef.ac.uk/ccrepo) Feb. 2017
              A. K. Wilson, D. E. Woon, K. A. Peterson, T. H. Dunning, Jr., J. Chem. Phys. 110, 7667 (1999)
     Ag, Au : Obtained from the Peterson Research Group Website (tyr0.chem.wsu.edu/~kipeters) Feb. 2017
              K. A. Peterson, C. Puzzarini, Theor. Chem. Acc. 114, 283 (2005)

----- AuxJ basis set information -----
Your calculation utilizes the auxiliary basis: def2/J
   F. Weigend, Phys. Chem. Chem. Phys. 8, 1057 (2006).

----- AuxC basis set information -----
Your calculation utilizes the auxiliary basis: aug-cc-pVTZ/C 
  H-He, B-F, Al-Ar, Ga-Kr : Obtained from the EMSL Basis Set Exchange (bse.pnl.gov) Feb. 2017
                            F. Weigend, A. Kohn, C. Hattig, J. Chem. Phys. 116, 3175 (2002)
                   Be, Mg : Obtained from the TURBOMOLE 7.0 basis set library
                            C. Haettig, Phys. Chem. Chem. Phys. 7, 59 (2005)
                       Ne : Obtained from the EMSL Basis Set Exchange (bse.pnl.gov) Feb. 2017
                            C. Haettig, Phys. Chem. Chem. Phys. 7, 59 (2005)
                            F. Weigend, A. Kohn, C. Hattig, J. Chem. Phys. 116, 3175 (2002)
                    Sc-Zn : Obtained from the EMSL Basis Set Exchange (bse.pnl.gov) Feb. 2017
                            J. G. Hill, J. A. Platts, J. Chem. Phys. 128, 044104 (2008)

================================================================================
                                        WARNINGS
                       Please study these warnings very carefully!
================================================================================


WARNING: No MP2 level density has been requested!
         To caclulate MP2 level properties use
         %mp2 Density relaxed end
         or
         %mp2 Density unrelaxed end
         Otherwise for double-hybrid DFT only the energy is correct!

WARNING: There are different parametrizations of Gershom Martin's DSD-DFs
         for use with and without D3(BJ)!
         You are using the D3(BJ) parametrized version,
         consistent with the GMTKN55 benchmark (L. Goerigk et al., PCCP 2017, 19, 32184)

WARNING: The frozen-core approximation is turned on by default for 
         the MP2 part of double-hybrid DFT.

INFO   : the flag for use of the SHARK integral package has been found!

================================================================================
                                       INPUT FILE
================================================================================
NAME = A.25.avtz.com
|  1> !PAL8
|  2> !RI-DSD-PBEP86 D3BJ aug-cc-pVTZ aug-cc-pVTZ/C TightSCF
|  3> %maxcore 5000
|  4> 
|  5> 
|  6> * xyz -1 1
|  7> C  1.1014362159  0.4381022812 -0.1048052275
|  8> C -1.2259950787  0.700934636  0.1277507685
|  9> N -2.6108985512  0.713442152  0.2973860499
| 10> S -0.1852107857 -0.6649954867  0.3178222467
| 11> S  2.8339069576 -0.1858281552 -0.2193355566
| 12> O  3.5105144098  0.6122923007  0.8211343409
| 13> O  2.590400114 -1.6074670437  0.0843669412
| 14> N  3.3193082974  0.015677996 -1.6785355345
| 15> H  3.6349054956  0.9851619058 -1.749332545
| 16> C -3.3943318888 -0.3478625814  0.6558841493
| 17> O -2.9436785532 -1.4590298218  0.870191122
| 18> C -4.8759434291 -0.0471684358  0.7687251447
| 19> N  0.7143356465  1.6470201094 -0.3444580539
| 20> N -0.6369725228  1.8117473321 -0.2094877732
| 21> H -3.0257928179  1.6220110125  0.1301613825
| 22> H -5.2019258534 -0.2968500891  1.7815092
| 23> H -5.4135218285 -0.6980596823  0.0745710035
| 24> H -5.1289968276  0.9942335705  0.5550113416
| 25> *
| 26> 
| 27>                          ****END OF INPUT****
================================================================================

                       ****************************
                       * Single Point Calculation *
                       ****************************

---------------------------------
CARTESIAN COORDINATES (ANGSTROEM)
---------------------------------
  C      1.101436    0.438102   -0.104805
  C     -1.225995    0.700935    0.127751
  N     -2.610899    0.713442    0.297386
  S     -0.185211   -0.664995    0.317822
  S      2.833907   -0.185828   -0.219336
  O      3.510514    0.612292    0.821134
  O      2.590400   -1.607467    0.084367
  N      3.319308    0.015678   -1.678536
  H      3.634905    0.985162   -1.749333
  C     -3.394332   -0.347863    0.655884
  O     -2.943679   -1.459030    0.870191
  C     -4.875943   -0.047168    0.768725
  N      0.714336    1.647020   -0.344458
  N     -0.636973    1.811747   -0.209488
  H     -3.025793    1.622011    0.130161
  H     -5.201926   -0.296850    1.781509
  H     -5.413522   -0.698060    0.074571
  H     -5.128997    0.994234    0.555011

----------------------------
CARTESIAN COORDINATES (A.U.)
----------------------------
  NO LB      ZA    FRAG     MASS         X           Y           Z
   0 C     6.0000    0    12.011    2.081413    0.827893   -0.198053
   1 C     6.0000    0    12.011   -2.316795    1.324574    0.241414
   2 N     7.0000    0    14.007   -4.933883    1.348210    0.561978
   3 S    16.0000    0    32.060   -0.349998   -1.256659    0.600597
   4 S    16.0000    0    32.060    5.355308   -0.351164   -0.414484
   5 O     8.0000    0    15.999    6.633911    1.157065    1.551719
   6 O     8.0000    0    15.999    4.895147   -3.037672    0.159430
   7 N     7.0000    0    14.007    6.272584    0.029627   -3.171972
   8 H     1.0000    0     1.008    6.868976    1.861686   -3.305759
   9 C     6.0000    0    12.011   -6.414358   -0.657365    1.239441
  10 O     8.0000    0    15.999   -5.562746   -2.757167    1.644423
  11 C     6.0000    0    12.011   -9.214198   -0.089135    1.452680
  12 N     7.0000    0    14.007    1.349899    3.112417   -0.650931
  13 N     7.0000    0    14.007   -1.203704    3.423706   -0.395875
  14 H     1.0000    0     1.008   -5.717920    3.065157    0.245969
  15 H     1.0000    0     1.008   -9.830215   -0.560965    3.366564
  16 H     1.0000    0     1.008  -10.230074   -1.319142    0.140919
  17 H     1.0000    0     1.008   -9.692399    1.878829    1.048819

--------------------------------
INTERNAL COORDINATES (ANGSTROEM)
--------------------------------
 C      0   0   0     0.000000000000     0.00000000     0.00000000
 C      1   0   0     2.353741610519     0.00000000     0.00000000
 N      2   1   0     1.395310071201   173.96614374     0.00000000
 S      2   1   3     1.727751200688    47.69550725     0.99523586
 S      1   2   3     1.844955624560   166.51507551     4.45613441
 O      5   1   4     1.475591919910   101.76442407   241.36106214
 O      5   1   4     1.473970121592    99.10545393     1.43509719
 N      5   1   4     1.550962206230   107.96003994   117.97317456
 H      8   5   1     1.022014119065   106.56262974    82.79059369
 C      3   2   4     1.366988082930   126.42420540     0.62608863
 O     10   3   2     1.218075754448   122.84353414   359.86272504
 C     10   3   2     1.516022036710   115.19055329   179.92098530
 N      1   2   3     1.291805961966    67.51261690   178.82566301
 N      2   1  13     1.301761211276    67.80664284   359.86946166
 H      3   2  14     1.012718478254   113.24073085     0.18689316
 H     12  10   3     1.092857269554   108.37154215   237.83194030
 H     12  10   3     1.092931801174   108.37931963   121.09446208
 H     12  10   3     1.092807279832   113.62598408   359.47815419

---------------------------
INTERNAL COORDINATES (A.U.)
---------------------------
 C      0   0   0     0.000000000000     0.00000000     0.00000000
 C      1   0   0     4.447927033896     0.00000000     0.00000000
 N      2   1   0     2.636753906472   173.96614374     0.00000000
 S      2   1   3     3.264976596855    47.69550725     0.99523586
 S      1   2   3     3.486460859657   166.51507551     4.45613441
 O      5   1   4     2.788464614056   101.76442407   241.36106214
 O      5   1   4     2.785399859391    99.10545393     1.43509719
 N      5   1   4     2.930893813837   107.96003994   117.97317456
 H      8   5   1     1.931326790034   106.56262974    82.79059369
 C      3   2   4     2.583233105072   126.42420540     0.62608863
 O     10   3   2     2.301829586276   122.84353414   359.86272504
 C     10   3   2     2.864866462372   115.19055329   179.92098530
 N      1   2   3     2.441159486283    67.51261690   178.82566301
 N      2   1  13     2.459972181074    67.80664284   359.86946166
 H      3   2  14     1.913760574662   113.24073085     0.18689316
 H     12  10   3     2.065200942922   108.37154215   237.83194030
 H     12  10   3     2.065341787272   108.37931963   121.09446208
 H     12  10   3     2.065106476038   113.62598408   359.47815419

---------------------
BASIS SET INFORMATION
---------------------
There are 5 groups of distinct atoms

 Group   1 Type C   : 19s6p3d2f contracted to 5s4p3d2f pattern {88111/3111/111/11}
 Group   2 Type N   : 19s6p3d2f contracted to 5s4p3d2f pattern {88111/3111/111/11}
 Group   3 Type S   : 42s17p3d2f contracted to 6s5p3d2f pattern {131313111/77111/111/11}
 Group   4 Type O   : 19s6p3d2f contracted to 5s4p3d2f pattern {88111/3111/111/11}
 Group   5 Type H   : 6s3p2d contracted to 4s3p2d pattern {3111/111/11}

Atom   0C    basis set group =>   1
Atom   1C    basis set group =>   1
Atom   2N    basis set group =>   2
Atom   3S    basis set group =>   3
Atom   4S    basis set group =>   3
Atom   5O    basis set group =>   4
Atom   6O    basis set group =>   4
Atom   7N    basis set group =>   2
Atom   8H    basis set group =>   5
Atom   9C    basis set group =>   1
Atom  10O    basis set group =>   4
Atom  11C    basis set group =>   1
Atom  12N    basis set group =>   2
Atom  13N    basis set group =>   2
Atom  14H    basis set group =>   5
Atom  15H    basis set group =>   5
Atom  16H    basis set group =>   5
Atom  17H    basis set group =>   5
---------------------------------
AUXILIARY/J BASIS SET INFORMATION
---------------------------------
There are 5 groups of distinct atoms

 Group   1 Type C   : 12s5p4d2f1g contracted to 6s4p3d1f1g pattern {711111/2111/211/2/1}
 Group   2 Type N   : 12s5p4d2f1g contracted to 6s4p3d1f1g pattern {711111/2111/211/2/1}
 Group   3 Type S   : 14s5p5d2f1g contracted to 8s4p3d1f1g pattern {71111111/2111/311/2/1}
 Group   4 Type O   : 12s5p4d2f1g contracted to 6s4p3d1f1g pattern {711111/2111/211/2/1}
 Group   5 Type H   : 5s2p1d contracted to 3s1p1d pattern {311/2/1}

Atom   0C    basis set group =>   1
Atom   1C    basis set group =>   1
Atom   2N    basis set group =>   2
Atom   3S    basis set group =>   3
Atom   4S    basis set group =>   3
Atom   5O    basis set group =>   4
Atom   6O    basis set group =>   4
Atom   7N    basis set group =>   2
Atom   8H    basis set group =>   5
Atom   9C    basis set group =>   1
Atom  10O    basis set group =>   4
Atom  11C    basis set group =>   1
Atom  12N    basis set group =>   2
Atom  13N    basis set group =>   2
Atom  14H    basis set group =>   5
Atom  15H    basis set group =>   5
Atom  16H    basis set group =>   5
Atom  17H    basis set group =>   5
---------------------------------
AUXILIARY/C BASIS SET INFORMATION
---------------------------------
There are 5 groups of distinct atoms

 Group   1 Type C   : 9s7p6d4f2g contracted to 9s7p6d4f2g pattern {111111111/1111111/111111/1111/11}
 Group   2 Type N   : 9s7p6d4f2g contracted to 9s7p6d4f2g pattern {111111111/1111111/111111/1111/11}
 Group   3 Type S   : 11s9p8d6f3g contracted to 11s9p8d6f3g pattern {11111111111/111111111/11111111/111111/111}
 Group   4 Type O   : 9s7p6d4f2g contracted to 9s7p6d4f2g pattern {111111111/1111111/111111/1111/11}
 Group   5 Type H   : 5s4p3d2f contracted to 5s4p3d2f pattern {11111/1111/111/11}

Atom   0C    basis set group =>   1
Atom   1C    basis set group =>   1
Atom   2N    basis set group =>   2
Atom   3S    basis set group =>   3
Atom   4S    basis set group =>   3
Atom   5O    basis set group =>   4
Atom   6O    basis set group =>   4
Atom   7N    basis set group =>   2
Atom   8H    basis set group =>   5
Atom   9C    basis set group =>   1
Atom  10O    basis set group =>   4
Atom  11C    basis set group =>   1
Atom  12N    basis set group =>   2
Atom  13N    basis set group =>   2
Atom  14H    basis set group =>   5
Atom  15H    basis set group =>   5
Atom  16H    basis set group =>   5
Atom  17H    basis set group =>   5


           ************************************************************
           *        Program running with 8 parallel MPI-processes     *
           *              working on a common directory               *
           ************************************************************
------------------------------------------------------------------------------
                           ORCA GTO INTEGRAL CALCULATION
                           -- RI-GTO INTEGRALS CHOSEN --
------------------------------------------------------------------------------
------------------------------------------------------------------------------
                   ___                                                        
                  /   \      - P O W E R E D   B Y -                         
                 /     \                                                     
                 |  |  |   _    _      __       _____    __    __             
                 |  |  |  | |  | |    /  \     |  _  \  |  |  /  |          
                  \  \/   | |  | |   /    \    | | | |  |  | /  /          
                 / \  \   | |__| |  /  /\  \   | |_| |  |  |/  /          
                |  |  |   |  __  | /  /__\  \  |    /   |      \           
                |  |  |   | |  | | |   __   |  |    \   |  |\   \          
                \     /   | |  | | |  |  |  |  | |\  \  |  | \   \       
                 \___/    |_|  |_| |__|  |__|  |_| \__\ |__|  \__/        
                                                                              
                      - O R C A' S   B I G   F R I E N D -                    
                                      &                                       
                       - I N T E G R A L  F E E D E R -                       
                                                                              
 v1 FN, 2020, v2 2021                                                         
------------------------------------------------------------------------------


Reading SHARK input file A.25.avtz.SHARKINP.tmp ... ok
----------------------
SHARK INTEGRAL PACKAGE
----------------------

Number of atoms                             ...     18
Number of basis functions                   ...    837
Number of shells                            ...    327
Maximum angular momentum                    ...      3
Integral batch strategy                     ... SHARK/LIBINT Hybrid
RI-J (if used) integral strategy            ... SPLIT-RIJ (Revised 2003 algorithm where possible)
Printlevel                                  ...      1
Contraction scheme used                     ... PARTIAL GENERAL contraction
Coulomb Range Separation                    ... NOT USED
Exchange Range Separation                   ... NOT USED
Finite Nucleus Model                        ... NOT USED
Auxiliary Coulomb fitting basis             ... AVAILABLE
   # of basis functions in Aux-J            ...    696
   # of shells in Aux-J                     ...    224
   Maximum angular momentum in Aux-J        ...      4
Auxiliary J/K fitting basis                 ... NOT available
Auxiliary Correlation fitting basis         ... AVAILABLE
   # of basis functions in Aux-C            ...   1690
   # of shells in Aux-C                     ...    452
   Maximum angular momentum in Aux-C        ...      4
Auxiliary 'external' fitting basis          ... NOT available
Integral threshold                          ...     2.500000e-11
Primitive cut-off                           ...     2.500000e-12
Primitive pair pre-selection threshold      ...     2.500000e-12

Calculating pre-screening integrals         ... done (  0.1 sec) Dimension = 327
Calculating pre-screening integrals (ORCA)  ... done (  0.2 sec) Dimension = 231
Organizing shell pair data                  ... done (  0.4 sec)
Shell pair information
Total number of shell pairs                 ...     53628
Shell pairs after pre-screening             ...     36581
Total number of primitive shell pairs       ...     64668
Primitive shell pairs kept                  ...     41225
          la=0 lb=0:   7865 shell pairs
          la=1 lb=0:   9542 shell pairs
          la=1 lb=1:   2599 shell pairs
          la=2 lb=0:   6069 shell pairs
          la=2 lb=1:   3182 shell pairs
          la=2 lb=2:   1020 shell pairs
          la=3 lb=0:   3221 shell pairs
          la=3 lb=1:   1723 shell pairs
          la=3 lb=2:   1064 shell pairs
          la=3 lb=3:    296 shell pairs

Calculating one electron integrals          ... done (  0.1 sec)
Calculating RI/J V-Matrix + Cholesky decomp.... done (  0.1 sec)
Calculating RI/C V-Matrix + Cholesky decomp.... done (  0.1 sec)
Calculating Nuclear repulsion               ... done (  0.0 sec) ENN=   1039.117882878267 Eh

SHARK setup successfully completed in   1.4 seconds

Maximum memory used throughout the entire GTOINT-calculation: 76.1 MB


           ************************************************************
           *        Program running with 8 parallel MPI-processes     *
           *              working on a common directory               *
           ************************************************************
-------------------------------------------------------------------------------
                                 ORCA SCF
-------------------------------------------------------------------------------

------------
SCF SETTINGS
------------
Hamiltonian:
 Density Functional     Method          .... DFT(GTOs)
 Exchange Functional    Exchange        .... PBE
   PBE kappa parameter   XKappa         ....  0.804000
   PBE mue parameter    XMuePBE         ....  0.219520
 Correlation Functional Correlation     .... P86
 LDA part of GGA corr.  LDAOpt          .... VWN-5
 Gradients option       PostSCFGGA      .... off
 Hybrid DFT is turned on
   Fraction HF Exchange ScalHFX         ....  0.700000
   Scaling of DF-GGA-X  ScalDFX         ....  0.300000
   Scaling of DF-GGA-C  ScalDFC         ....  0.430000
   Scaling of DF-LDA-C  ScalLDAC        ....  0.430000
   Perturbative correction              ....  1.000000
   Density functional embedding theory  .... OFF
   NL short-range parameter             .... 14.200000
 RI-approximation to the Coulomb term is turned on
   Number of AuxJ basis functions       .... 696
   RIJ-COSX (HFX calculated with COS-X)).... on


General Settings:
 Integral files         IntName         .... A.25.avtz
 Hartree-Fock type      HFTyp           .... RHF
 Total Charge           Charge          ....   -1
 Multiplicity           Mult            ....    1
 Number of Electrons    NEL             ....  114
 Basis Dimension        Dim             ....  721
 Nuclear Repulsion      ENuc            ....   1039.1178828783 Eh

Convergence Acceleration:
 DIIS                   CNVDIIS         .... on
   Start iteration      DIISMaxIt       ....    12
   Startup error        DIISStart       ....  0.200000
   # of expansion vecs  DIISMaxEq       ....     5
   Bias factor          DIISBfac        ....   1.050
   Max. coefficient     DIISMaxC        ....  10.000
 Trust-Rad. Augm. Hess. CNVTRAH         .... auto
   Auto Start mean grad. ratio tolernc. ....  1.125000
   Auto Start start iteration           ....    20
   Auto Start num. interpolation iter.  ....    10
   Max. Number of Micro iterations      ....    16
   Max. Number of Macro iterations      .... Maxiter - #DIIS iter
   Number of Davidson start vectors     ....     2
   Converg. threshold I  (grad. norm)   ....   1.000e-05
   Converg. threshold II (energy diff.) ....   1.000e-08
   Grad. Scal. Fac. for Micro threshold ....   0.100
   Minimum threshold for Micro iter.    ....   0.010
   NR start threshold (gradient norm)   ....   0.001
   Initial trust radius                 ....   0.400
   Minimum AH scaling param. (alpha)    ....   1.000
   Maximum AH scaling param. (alpha)    .... 1000.000
   Orbital update algorithm             .... Taylor
   White noise on init. David. guess    .... on
   Maximum white noise                  ....   0.010
   Quad. conv. algorithm                .... NR
 SOSCF                  CNVSOSCF        .... on
   Start iteration      SOSCFMaxIt      ....   150
   Startup grad/error   SOSCFStart      ....  0.003300
 Level Shifting         CNVShift        .... on
   Level shift para.    LevelShift      ....    0.2500
   Turn off err/grad.   ShiftErr        ....    0.0010
 Zerner damping         CNVZerner       .... off
 Static damping         CNVDamp         .... on
   Fraction old density DampFac         ....    0.7000
   Max. Damping (<1)    DampMax         ....    0.9800
   Min. Damping (>=0)   DampMin         ....    0.0000
   Turn off err/grad.   DampErr         ....    0.1000
 Fernandez-Rico         CNVRico         .... off

SCF Procedure:
 Maximum # iterations   MaxIter         ....   125
 SCF integral mode      SCFMode         .... Direct
   Integral package                     .... SHARK and LIBINT hybrid scheme
 Reset frequency        DirectResetFreq ....    20
 Integral Threshold     Thresh          ....  2.500e-11 Eh
 Primitive CutOff       TCut            ....  2.500e-12 Eh

Convergence Tolerance:
 Convergence Check Mode ConvCheckMode   .... Total+1el-Energy
 Convergence forced     ConvForced      .... 0
 Energy Change          TolE            ....  1.000e-08 Eh
 1-El. energy change                    ....  1.000e-05 Eh
 Orbital Gradient       TolG            ....  1.000e-05
 Orbital Rotation angle TolX            ....  1.000e-05
 DIIS Error             TolErr          ....  5.000e-07


Diagonalization of the overlap matrix:
Smallest eigenvalue                        ... 5.611e-06
Time for diagonalization                   ...    0.084 sec
Threshold for overlap eigenvalues          ... 1.000e-08
Number of eigenvalues below threshold      ... 0
Time for construction of square roots      ...    0.046 sec
Total time needed                          ...    0.134 sec

Time for model grid setup =    0.133 sec

------------------------------
INITIAL GUESS: MODEL POTENTIAL
------------------------------
Loading Hartree-Fock densities                     ... done
Calculating cut-offs                               ... done
Initializing the effective Hamiltonian             ... done
Setting up the integral package (SHARK)            ... done
Starting the Coulomb interaction                   ... done (   0.3 sec)
Reading the grid                                   ... done
Mapping shells                                     ... done
Starting the XC term evaluation                    ... done (   0.3 sec)
  promolecular density results
     # of electrons  =    112.997291218
     EX              =   -122.415826937
     EC              =      0.001813698
     EX+EC           =   -122.414013239
Transforming the Hamiltonian                       ... done (   0.0 sec)
Diagonalizing the Hamiltonian                      ... done (   0.1 sec)
Back transforming the eigenvectors                 ... done (   0.0 sec)
Now organizing SCF variables                       ... done
                      ------------------
                      INITIAL GUESS DONE (   0.9 sec)
                      ------------------
-------------------
DFT GRID GENERATION
-------------------

General Integration Accuracy     IntAcc      ... 4.388
Radial Grid Type                 RadialGrid  ... OptM3 with GC (2021)
Angular Grid (max. ang.)         AngularGrid ... 4 (Lebedev-302)
Angular grid pruning method      GridPruning ... 4 (adaptive)
Weight generation scheme         WeightScheme... Becke
Basis function cutoff            BFCut       ... 1.0000e-11
Integration weight cutoff        WCut        ... 1.0000e-14
Angular grids for H and He will be reduced by one unit
Partially contracted basis set               ... off
Rotationally invariant grid construction     ... off

Total number of grid points                  ...   101989
Total number of batches                      ...     1603
Average number of points per batch           ...       63
Average number of grid points per atom       ...     5666
Time for grid setup =    0.558 sec

--------------------
COSX GRID GENERATION
--------------------

GRIDX 1
-------
General Integration Accuracy     IntAcc      ... 3.816
Radial Grid Type                 RadialGrid  ... OptM3 with GC (2021)
Angular Grid (max. ang.)         AngularGrid ... 1 (Lebedev-50)
Angular grid pruning method      GridPruning ... 4 (adaptive)
Weight generation scheme         WeightScheme... Becke
Basis function cutoff            BFCut       ... 1.0000e-11
Integration weight cutoff        WCut        ... 1.0000e-14
Angular grids for H and He will be reduced by one unit
Partially contracted basis set               ... on
Rotationally invariant grid construction     ... off

Total number of grid points                  ...    12666
Total number of batches                      ...      208
Average number of points per batch           ...       60
Average number of grid points per atom       ...      704
UseSFitting                                  ... on

GRIDX 2
-------
General Integration Accuracy     IntAcc      ... 4.020
Radial Grid Type                 RadialGrid  ... OptM3 with GC (2021)
Angular Grid (max. ang.)         AngularGrid ... 2 (Lebedev-110)
Angular grid pruning method      GridPruning ... 4 (adaptive)
Weight generation scheme         WeightScheme... Becke
Basis function cutoff            BFCut       ... 1.0000e-11
Integration weight cutoff        WCut        ... 1.0000e-14
Angular grids for H and He will be reduced by one unit
Partially contracted basis set               ... on
Rotationally invariant grid construction     ... off

Total number of grid points                  ...    32125
Total number of batches                      ...      511
Average number of points per batch           ...       62
Average number of grid points per atom       ...     1785
UseSFitting                                  ... on

GRIDX 3
-------
General Integration Accuracy     IntAcc      ... 4.338
Radial Grid Type                 RadialGrid  ... OptM3 with GC (2021)
Angular Grid (max. ang.)         AngularGrid ... 3 (Lebedev-194)
Angular grid pruning method      GridPruning ... 4 (adaptive)
Weight generation scheme         WeightScheme... Becke
Basis function cutoff            BFCut       ... 1.0000e-11
Integration weight cutoff        WCut        ... 1.0000e-14
Angular grids for H and He will be reduced by one unit
Partially contracted basis set               ... on
Rotationally invariant grid construction     ... off

Total number of grid points                  ...    71702
Total number of batches                      ...     1129
Average number of points per batch           ...       63
Average number of grid points per atom       ...     3983
UseSFitting                                  ... on

Time for X-Grid setup             =    1.131 sec

 re-compute Schwartz prescreening matrix in partically contracted basis (1) ...done (   0.095 sec)
--------------
SCF ITERATIONS
--------------
ITER       Energy         Delta-E        Max-DP      RMS-DP      [F,P]     Damp
               ***  Starting incremental Fock matrix formation  ***
  0  -1393.3069798571   0.000000000000 0.06780272  0.00075060  0.3260908 0.7000
  1  -1393.5425401852  -0.235560328102 0.04625027  0.00054974  0.1765446 0.7000
                               ***Turning on DIIS***
  2  -1393.6524595635  -0.109919378259 0.08040213  0.00114836  0.0796058 0.0000
  3  -1393.8353009011  -0.182841337573 0.04159792  0.00034191  0.0786951 0.0000
  4  -1393.8656561440  -0.030355242900 0.01145538  0.00010817  0.0092005 0.0000
  5  -1393.8668141264  -0.001157982456 0.00535593  0.00004848  0.0044593 0.0000
                      *** Initiating the SOSCF procedure ***
                           *** Shutting down DIIS ***
                      *** Re-Reading the Fockian *** 
                      *** Removing any level shift *** 
ITER      Energy       Delta-E        Grad      Rot      Max-DP    RMS-DP
  6  -1393.86712221  -0.0003080786  0.001078  0.001078  0.002047  0.000024
               *** Restarting incremental Fock matrix formation ***
  7  -1393.86717036  -0.0000481515  0.000545  0.001372  0.022467  0.000239
  8  -1393.86719354  -0.0000231828  0.000262  0.001392  0.011575  0.000121
  9  -1393.86719832  -0.0000047795  0.000111  0.000236  0.008700  0.000094
 10  -1393.86720040  -0.0000020801  0.000017  0.000063  0.001540  0.000016
 11  -1393.86720045  -0.0000000500  0.000020  0.000031  0.000383  0.000005
 12  -1393.86720049  -0.0000000414  0.000004  0.000014  0.000536  0.000003
 13  -1393.86720050  -0.0000000106  0.000003  0.000005  0.000470  0.000003
                  ***Gradient check signals convergence***
              ***Rediagonalizing the Fockian in SOSCF/NRSCF***

               *****************************************************
               *                     SUCCESS                       *
               *           SCF CONVERGED AFTER  14 CYCLES          *
               *****************************************************

Old exchange energy                            =    -86.831665915 Eh
New exchange energy                            =    -86.831546425 Eh
Exchange energy change after final integration =      0.000119490 Eh
Total energy after final integration           =  -1393.867081021 Eh
Final COS-X integration done in                =    19.213 sec

----------------
TOTAL SCF ENERGY
----------------

Total Energy       :        -1393.86708102 Eh          -37929.05155 eV

Components:
Nuclear Repulsion  :         1039.11788288 Eh           28275.83511 eV
Electronic Energy  :        -2432.98496390 Eh          -66204.88666 eV
One Electron Energy:        -3999.46032917 Eh         -108830.84841 eV
Two Electron Energy:         1566.47536527 Eh           42625.96175 eV
Max COSX asymmetry :            0.00000783 Eh               0.00021 eV

Virial components:
Potential Energy   :        -2784.35928288 Eh          -75766.26797 eV
Kinetic Energy     :         1390.49220185 Eh           37837.21642 eV
Virial Ratio       :            2.00242711


DFT components:
N(Alpha)           :       57.000095468579 electrons
N(Beta)            :       57.000095468579 electrons
N(Total)           :      114.000190937158 electrons
E(X)               :      -37.100501779182 Eh       
E(C)               :       -1.956281706419 Eh       
E(XC)              :      -39.056783485601 Eh       
DFET-embed. en.    :        0.000000000000 Eh       

---------------
SCF CONVERGENCE
---------------

  Last Energy change         ...   -1.0670e-08  Tolerance :   1.0000e-08
  Last MAX-Density change    ...    6.2172e-15  Tolerance :   1.0000e-07
  Last RMS-Density change    ...    1.8804e-17  Tolerance :   5.0000e-09
  Last Orbital Gradient      ...    3.8745e-07  Tolerance :   1.0000e-05
  Last Orbital Rotation      ...    1.0091e-06  Tolerance :   1.0000e-05

             **** THE GBW FILE WAS UPDATED (A.25.avtz.gbw) ****
             **** DENSITY A.25.avtz.scfp WAS UPDATED ****
             **** ENERGY FILE WAS UPDATED (A.25.avtz.en.tmp) ****
             **** THE GBW FILE WAS UPDATED (A.25.avtz.gbw) ****
             **** DENSITY A.25.avtz.scfp WAS UPDATED ****
----------------
ORBITAL ENERGIES
----------------

  NO   OCC          E(Eh)            E(eV) 
   0   2.0000     -90.857295     -2472.3527 
   1   2.0000     -90.739526     -2469.1480 
   2   2.0000     -19.922976      -542.1318 
   3   2.0000     -19.834959      -539.7367 
   4   2.0000     -19.834568      -539.7260 
   5   2.0000     -15.071113      -410.1058 
   6   2.0000     -15.016395      -408.6169 
   7   2.0000     -15.008865      -408.4120 
   8   2.0000     -14.894560      -405.3016 
   9   2.0000     -10.886537      -296.2377 
  10   2.0000     -10.839374      -294.9544 
  11   2.0000     -10.781976      -293.3925 
  12   2.0000     -10.781706      -293.3851 
  13   2.0000      -8.598430      -233.9752 
  14   2.0000      -8.514845      -231.7007 
  15   2.0000      -6.385454      -173.7570 
  16   2.0000      -6.382598      -173.6793 
  17   2.0000      -6.381678      -173.6543 
  18   2.0000      -6.297146      -171.3540 
  19   2.0000      -6.294470      -171.2812 
  20   2.0000      -6.293914      -171.2661 
  21   2.0000      -1.199500       -32.6401 
  22   2.0000      -1.149823       -31.2883 
  23   2.0000      -1.133006       -30.8307 
  24   2.0000      -1.064053       -28.9544 
  25   2.0000      -1.030548       -28.0426 
  26   2.0000      -0.900976       -24.5168 
  27   2.0000      -0.887243       -24.1431 
  28   2.0000      -0.864980       -23.5373 
  29   2.0000      -0.838591       -22.8192 
  30   2.0000      -0.699868       -19.0444 
  31   2.0000      -0.647680       -17.6243 
  32   2.0000      -0.623905       -16.9773 
  33   2.0000      -0.577191       -15.7062 
  34   2.0000      -0.535215       -14.5639 
  35   2.0000      -0.514727       -14.0064 
  36   2.0000      -0.505721       -13.7614 
  37   2.0000      -0.470997       -12.8165 
  38   2.0000      -0.453177       -12.3316 
  39   2.0000      -0.452192       -12.3048 
  40   2.0000      -0.438706       -11.9378 
  41   2.0000      -0.429476       -11.6866 
  42   2.0000      -0.416309       -11.3284 
  43   2.0000      -0.400870       -10.9082 
  44   2.0000      -0.393164       -10.6985 
  45   2.0000      -0.329797        -8.9742 
  46   2.0000      -0.311041        -8.4638 
  47   2.0000      -0.302617        -8.2346 
  48   2.0000      -0.300405        -8.1744 
  49   2.0000      -0.270781        -7.3683 
  50   2.0000      -0.259203        -7.0533 
  51   2.0000      -0.253571        -6.9000 
  52   2.0000      -0.246722        -6.7136 
  53   2.0000      -0.235248        -6.4014 
  54   2.0000      -0.208877        -5.6838 
  55   2.0000      -0.202696        -5.5156 
  56   2.0000      -0.168914        -4.5964 
  57   0.0000       0.070402         1.9157 
  58   0.0000       0.092719         2.5230 
  59   0.0000       0.094367         2.5679 
  60   0.0000       0.107715         2.9311 
  61   0.0000       0.132535         3.6065 
  62   0.0000       0.138787         3.7766 
  63   0.0000       0.143974         3.9177 
  64   0.0000       0.151522         4.1231 
  65   0.0000       0.154192         4.1958 
  66   0.0000       0.157518         4.2863 
  67   0.0000       0.163805         4.4573 
  68   0.0000       0.165768         4.5108 
  69   0.0000       0.179994         4.8979 
  70   0.0000       0.186004         5.0614 
  71   0.0000       0.187871         5.1122 
  72   0.0000       0.190524         5.1844 
  73   0.0000       0.191649         5.2150 
  74   0.0000       0.201817         5.4917 
  75   0.0000       0.203062         5.5256 
  76   0.0000       0.206173         5.6102 
  77   0.0000       0.210480         5.7275 
  78   0.0000       0.218203         5.9376 
  79   0.0000       0.226563         6.1651 
  80   0.0000       0.229103         6.2342 
  81   0.0000       0.234365         6.3774 
  82   0.0000       0.238103         6.4791 
  83   0.0000       0.242076         6.5872 
  84   0.0000       0.246827         6.7165 
  85   0.0000       0.249026         6.7763 
  86   0.0000       0.257645         7.0109 
  87   0.0000       0.259375         7.0579 
  88   0.0000       0.266439         7.2502 
  89   0.0000       0.274557         7.4711 
  90   0.0000       0.276052         7.5118 
  91   0.0000       0.280230         7.6254 
  92   0.0000       0.280521         7.6334 
  93   0.0000       0.289888         7.8882 
  94   0.0000       0.291338         7.9277 
  95   0.0000       0.297201         8.0873 
  96   0.0000       0.304387         8.2828 
  97   0.0000       0.309321         8.4171 
  98   0.0000       0.313788         8.5386 
  99   0.0000       0.320710         8.7270 
 100   0.0000       0.324426         8.8281 
 101   0.0000       0.326226         8.8771 
 102   0.0000       0.328500         8.9389 
 103   0.0000       0.336516         9.1571 
 104   0.0000       0.340003         9.2520 
 105   0.0000       0.346015         9.4155 
 106   0.0000       0.353069         9.6075 
 107   0.0000       0.356270         9.6946 
 108   0.0000       0.357296         9.7225 
 109   0.0000       0.362581         9.8663 
 110   0.0000       0.366227         9.9655 
 111   0.0000       0.373984        10.1766 
 112   0.0000       0.376357        10.2412 
 113   0.0000       0.378680        10.3044 
 114   0.0000       0.386111        10.5066 
 115   0.0000       0.387266        10.5381 
 116   0.0000       0.392025        10.6675 
 117   0.0000       0.393462        10.7066 
 118   0.0000       0.398668        10.8483 
 119   0.0000       0.402614        10.9557 
 120   0.0000       0.408084        11.1045 
 121   0.0000       0.414338        11.2747 
 122   0.0000       0.416868        11.3436 
 123   0.0000       0.424947        11.5634 
 124   0.0000       0.427231        11.6255 
 125   0.0000       0.432321        11.7641 
 126   0.0000       0.434943        11.8354 
 127   0.0000       0.436689        11.8829 
 128   0.0000       0.438888        11.9427 
 129   0.0000       0.444026        12.0826 
 130   0.0000       0.451933        12.2977 
 131   0.0000       0.453570        12.3423 
 132   0.0000       0.462807        12.5936 
 133   0.0000       0.463719        12.6184 
 134   0.0000       0.468469        12.7477 
 135   0.0000       0.477369        12.9899 
 136   0.0000       0.481544        13.1035 
 137   0.0000       0.490158        13.3379 
 138   0.0000       0.494264        13.4496 
 139   0.0000       0.498114        13.5544 
 140   0.0000       0.500737        13.6257 
 141   0.0000       0.506238        13.7754 
 142   0.0000       0.508970        13.8498 
 143   0.0000       0.515976        14.0404 
 144   0.0000       0.520500        14.1635 
 145   0.0000       0.521520        14.1913 
 146   0.0000       0.526151        14.3173 
 147   0.0000       0.532499        14.4900 
 148   0.0000       0.540912        14.7190 
 149   0.0000       0.542974        14.7751 
 150   0.0000       0.555545        15.1172 
 151   0.0000       0.558387        15.1945 
 152   0.0000       0.562732        15.3127 
 153   0.0000       0.566588        15.4176 
 154   0.0000       0.572579        15.5807 
 155   0.0000       0.576011        15.6741 
 156   0.0000       0.579917        15.7803 
 157   0.0000       0.586454        15.9582 
 158   0.0000       0.592321        16.1179 
 159   0.0000       0.597174        16.2499 
 160   0.0000       0.605770        16.4838 
 161   0.0000       0.612719        16.6729 
 162   0.0000       0.622016        16.9259 
 163   0.0000       0.624607        16.9964 
 164   0.0000       0.630062        17.1449 
 165   0.0000       0.632579        17.2133 
 166   0.0000       0.641166        17.4470 
 167   0.0000       0.649379        17.6705 
 168   0.0000       0.649898        17.6846 
 169   0.0000       0.657506        17.8917 
 170   0.0000       0.667251        18.1568 
 171   0.0000       0.667710        18.1693 
 172   0.0000       0.681546        18.5458 
 173   0.0000       0.686924        18.6921 
 174   0.0000       0.687993        18.7212 
 175   0.0000       0.693989        18.8844 
 176   0.0000       0.703118        19.1328 
 177   0.0000       0.708707        19.2849 
 178   0.0000       0.716085        19.4857 
 179   0.0000       0.717737        19.5306 
 180   0.0000       0.723121        19.6771 
 181   0.0000       0.733775        19.9670 
 182   0.0000       0.735342        20.0097 
 183   0.0000       0.738301        20.0902 
 184   0.0000       0.747125        20.3303 
 185   0.0000       0.757649        20.6167 
 186   0.0000       0.762083        20.7373 
 187   0.0000       0.767162        20.8755 
 188   0.0000       0.774623        21.0786 
 189   0.0000       0.778439        21.1824 
 190   0.0000       0.787486        21.4286 
 191   0.0000       0.791911        21.5490 
 192   0.0000       0.796234        21.6666 
 193   0.0000       0.800797        21.7908 
 194   0.0000       0.813040        22.1239 
 195   0.0000       0.817877        22.2556 
 196   0.0000       0.824400        22.4331 
 197   0.0000       0.829283        22.5659 
 198   0.0000       0.834677        22.7127 
 199   0.0000       0.838979        22.8298 
 200   0.0000       0.852285        23.1919 
 201   0.0000       0.859236        23.3810 
 202   0.0000       0.868603        23.6359 
 203   0.0000       0.870250        23.6807 
 204   0.0000       0.874016        23.7832 
 205   0.0000       0.875523        23.8242 
 206   0.0000       0.882678        24.0189 
 207   0.0000       0.885860        24.1055 
 208   0.0000       0.898057        24.4374 
 209   0.0000       0.901678        24.5359 
 210   0.0000       0.903699        24.5909 
 211   0.0000       0.908257        24.7149 
 212   0.0000       0.914112        24.8742 
 213   0.0000       0.917478        24.9658 
 214   0.0000       0.926515        25.2118 
 215   0.0000       0.928923        25.2773 
 216   0.0000       0.933938        25.4137 
 217   0.0000       0.939388        25.5620 
 218   0.0000       0.946528        25.7563 
 219   0.0000       0.950489        25.8641 
 220   0.0000       0.963272        26.2120 
 221   0.0000       0.965902        26.2835 
 222   0.0000       0.975528        26.5455 
 223   0.0000       0.979501        26.6536 
 224   0.0000       0.981147        26.6984 
 225   0.0000       0.987698        26.8766 
 226   0.0000       0.990027        26.9400 
 227   0.0000       0.996469        27.1153 
 228   0.0000       1.003345        27.3024 
 229   0.0000       1.007396        27.4126 
 230   0.0000       1.018170        27.7058 
 231   0.0000       1.021963        27.8090 
 232   0.0000       1.026832        27.9415 
 233   0.0000       1.034546        28.1514 
 234   0.0000       1.041175        28.3318 
 235   0.0000       1.048490        28.5309 
 236   0.0000       1.055568        28.7235 
 237   0.0000       1.057695        28.7813 
 238   0.0000       1.064247        28.9596 
 239   0.0000       1.069962        29.1151 
 240   0.0000       1.078517        29.3479 
 241   0.0000       1.087369        29.5888 
 242   0.0000       1.090224        29.6665 
 243   0.0000       1.093240        29.7486 
 244   0.0000       1.096651        29.8414 
 245   0.0000       1.102527        30.0013 
 246   0.0000       1.109071        30.1794 
 247   0.0000       1.113999        30.3135 
 248   0.0000       1.117152        30.3993 
 249   0.0000       1.119136        30.4532 
 250   0.0000       1.126401        30.6509 
 251   0.0000       1.136284        30.9199 
 252   0.0000       1.141950        31.0740 
 253   0.0000       1.149417        31.2772 
 254   0.0000       1.155998        31.4563 
 255   0.0000       1.158355        31.5204 
 256   0.0000       1.165150        31.7054 
 257   0.0000       1.169644        31.8276 
 258   0.0000       1.174681        31.9647 
 259   0.0000       1.184684        32.2369 
 260   0.0000       1.185973        32.2720 
 261   0.0000       1.201859        32.7042 
 262   0.0000       1.202949        32.7339 
 263   0.0000       1.205251        32.7966 
 264   0.0000       1.215265        33.0690 
 265   0.0000       1.227149        33.3924 
 266   0.0000       1.232031        33.5253 
 267   0.0000       1.240279        33.7497 
 268   0.0000       1.244188        33.8561 
 269   0.0000       1.251137        34.0452 
 270   0.0000       1.255481        34.1634 
 271   0.0000       1.256678        34.1960 
 272   0.0000       1.261175        34.3183 
 273   0.0000       1.265186        34.4275 
 274   0.0000       1.270832        34.5811 
 275   0.0000       1.282663        34.9030 
 276   0.0000       1.293217        35.1902 
 277   0.0000       1.304813        35.5058 
 278   0.0000       1.310527        35.6612 
 279   0.0000       1.322409        35.9846 
 280   0.0000       1.331823        36.2407 
 281   0.0000       1.332781        36.2668 
 282   0.0000       1.337133        36.3852 
 283   0.0000       1.345251        36.6061 
 284   0.0000       1.351503        36.7763 
 285   0.0000       1.354667        36.8624 
 286   0.0000       1.367285        37.2057 
 287   0.0000       1.372142        37.3379 
 288   0.0000       1.373339        37.3704 
 289   0.0000       1.379480        37.5375 
 290   0.0000       1.391493        37.8645 
 291   0.0000       1.404405        38.2158 
 292   0.0000       1.408996        38.3407 
 293   0.0000       1.412526        38.4368 
 294   0.0000       1.415491        38.5175 
 295   0.0000       1.426319        38.8121 
 296   0.0000       1.432452        38.9790 
 297   0.0000       1.435745        39.0686 
 298   0.0000       1.444721        39.3128 
 299   0.0000       1.449383        39.4397 
 300   0.0000       1.457606        39.6635 
 301   0.0000       1.459779        39.7226 
 302   0.0000       1.467017        39.9196 
 303   0.0000       1.471551        40.0429 
 304   0.0000       1.481894        40.3244 
 305   0.0000       1.486245        40.4428 
 306   0.0000       1.496501        40.7219 
 307   0.0000       1.502623        40.8884 
 308   0.0000       1.505837        40.9759 
 309   0.0000       1.515322        41.2340 
 310   0.0000       1.519419        41.3455 
 311   0.0000       1.530872        41.6571 
 312   0.0000       1.536703        41.8158 
 313   0.0000       1.547987        42.1229 
 314   0.0000       1.559658        42.4405 
 315   0.0000       1.575395        42.8687 
 316   0.0000       1.585947        43.1558 
 317   0.0000       1.593408        43.3588 
 318   0.0000       1.599810        43.5330 
 319   0.0000       1.604635        43.6643 
 320   0.0000       1.613749        43.9123 
 321   0.0000       1.617597        44.0170 
 322   0.0000       1.623907        44.1887 
 323   0.0000       1.641717        44.6734 
 324   0.0000       1.646279        44.7975 
 325   0.0000       1.649995        44.8987 
 326   0.0000       1.656674        45.0804 
 327   0.0000       1.662756        45.2459 
 328   0.0000       1.681768        45.7632 
 329   0.0000       1.687769        45.9265 
 330   0.0000       1.697193        46.1830 
 331   0.0000       1.698355        46.2146 
 332   0.0000       1.711689        46.5774 
 333   0.0000       1.715232        46.6738 
 334   0.0000       1.735539        47.2264 
 335   0.0000       1.738330        47.3024 
 336   0.0000       1.740413        47.3590 
 337   0.0000       1.749698        47.6117 
 338   0.0000       1.758907        47.8623 
 339   0.0000       1.764332        48.0099 
 340   0.0000       1.776325        48.3363 
 341   0.0000       1.780670        48.4545 
 342   0.0000       1.794008        48.8174 
 343   0.0000       1.809508        49.2392 
 344   0.0000       1.824448        49.6458 
 345   0.0000       1.832367        49.8613 
 346   0.0000       1.835456        49.9453 
 347   0.0000       1.857908        50.5562 
 348   0.0000       1.871800        50.9343 
 349   0.0000       1.881172        51.1893 
 350   0.0000       1.885699        51.3125 
 351   0.0000       1.890650        51.4472 
 352   0.0000       1.899422        51.6859 
 353   0.0000       1.903805        51.8052 
 354   0.0000       1.911194        52.0062 
 355   0.0000       1.915084        52.1121 
 356   0.0000       1.924732        52.3746 
 357   0.0000       1.932793        52.5940 
 358   0.0000       1.943169        52.8763 
 359   0.0000       1.948784        53.0291 
 360   0.0000       1.972154        53.6650 
 361   0.0000       1.982530        53.9474 
 362   0.0000       1.982851        53.9561 
 363   0.0000       1.999250        54.4024 
 364   0.0000       2.010104        54.6977 
 365   0.0000       2.013008        54.7767 
 366   0.0000       2.030258        55.2461 
 367   0.0000       2.042359        55.5754 
 368   0.0000       2.049711        55.7755 
 369   0.0000       2.054162        55.8966 
 370   0.0000       2.060729        56.0753 
 371   0.0000       2.074434        56.4482 
 372   0.0000       2.088915        56.8423 
 373   0.0000       2.103187        57.2306 
 374   0.0000       2.119507        57.6747 
 375   0.0000       2.122583        57.7584 
 376   0.0000       2.125673        57.8425 
 377   0.0000       2.133789        58.0634 
 378   0.0000       2.143209        58.3197 
 379   0.0000       2.145611        58.3850 
 380   0.0000       2.160174        58.7813 
 381   0.0000       2.164756        58.9060 
 382   0.0000       2.173077        59.1324 
 383   0.0000       2.194893        59.7261 
 384   0.0000       2.195897        59.7534 
 385   0.0000       2.199247        59.8445 
 386   0.0000       2.210338        60.1464 
 387   0.0000       2.215218        60.2792 
 388   0.0000       2.234929        60.8155 
 389   0.0000       2.253737        61.3273 
 390   0.0000       2.255820        61.3840 
 391   0.0000       2.266341        61.6703 
 392   0.0000       2.275724        61.9256 
 393   0.0000       2.279820        62.0370 
 394   0.0000       2.284718        62.1703 
 395   0.0000       2.296845        62.5003 
 396   0.0000       2.309058        62.8326 
 397   0.0000       2.312583        62.9286 
 398   0.0000       2.315871        63.0181 
 399   0.0000       2.333865        63.5077 
 400   0.0000       2.337232        63.5993 
 401   0.0000       2.347409        63.8762 
 402   0.0000       2.350310        63.9552 
 403   0.0000       2.365589        64.3709 
 404   0.0000       2.370599        64.5073 
 405   0.0000       2.379150        64.7400 
 406   0.0000       2.400691        65.3261 
 407   0.0000       2.402818        65.3840 
 408   0.0000       2.418230        65.8034 
 409   0.0000       2.420818        65.8738 
 410   0.0000       2.425782        66.0089 
 411   0.0000       2.437400        66.3250 
 412   0.0000       2.439045        66.3698 
 413   0.0000       2.453066        66.7513 
 414   0.0000       2.459435        66.9246 
 415   0.0000       2.467426        67.1421 
 416   0.0000       2.473485        67.3069 
 417   0.0000       2.482219        67.5446 
 418   0.0000       2.489200        67.7346 
 419   0.0000       2.496542        67.9344 
 420   0.0000       2.518349        68.5278 
 421   0.0000       2.521908        68.6246 
 422   0.0000       2.524143        68.6854 
 423   0.0000       2.537184        69.0403 
 424   0.0000       2.550141        69.3929 
 425   0.0000       2.557214        69.5853 
 426   0.0000       2.564195        69.7753 
 427   0.0000       2.575378        70.0796 
 428   0.0000       2.582413        70.2710 
 429   0.0000       2.597079        70.6701 
 430   0.0000       2.599913        70.7472 
 431   0.0000       2.609812        71.0166 
 432   0.0000       2.619414        71.2779 
 433   0.0000       2.625081        71.4321 
 434   0.0000       2.641803        71.8871 
 435   0.0000       2.651368        72.1474 
 436   0.0000       2.654192        72.2242 
 437   0.0000       2.659381        72.3654 
 438   0.0000       2.671812        72.7037 
 439   0.0000       2.674876        72.7871 
 440   0.0000       2.697015        73.3895 
 441   0.0000       2.703658        73.5703 
 442   0.0000       2.711198        73.7754 
 443   0.0000       2.727315        74.2140 
 444   0.0000       2.741311        74.5949 
 445   0.0000       2.759086        75.0785 
 446   0.0000       2.766215        75.2725 
 447   0.0000       2.769171        75.3530 
 448   0.0000       2.780631        75.6648 
 449   0.0000       2.793174        76.0061 
 450   0.0000       2.795416        76.0671 
 451   0.0000       2.818916        76.7066 
 452   0.0000       2.832596        77.0789 
 453   0.0000       2.849297        77.5333 
 454   0.0000       2.853169        77.6387 
 455   0.0000       2.867110        78.0180 
 456   0.0000       2.887098        78.5619 
 457   0.0000       2.905697        79.0680 
 458   0.0000       2.910066        79.1869 
 459   0.0000       2.921568        79.4999 
 460   0.0000       2.926881        79.6445 
 461   0.0000       2.939799        79.9960 
 462   0.0000       2.953512        80.3691 
 463   0.0000       2.968083        80.7656 
 464   0.0000       2.982093        81.1469 
 465   0.0000       2.987491        81.2938 
 466   0.0000       3.007001        81.8247 
 467   0.0000       3.022480        82.2459 
 468   0.0000       3.038481        82.6813 
 469   0.0000       3.050142        82.9986 
 470   0.0000       3.061071        83.2960 
 471   0.0000       3.074742        83.6680 
 472   0.0000       3.082811        83.8875 
 473   0.0000       3.099642        84.3456 
 474   0.0000       3.107146        84.5498 
 475   0.0000       3.133807        85.2752 
 476   0.0000       3.156744        85.8994 
 477   0.0000       3.169038        86.2339 
 478   0.0000       3.186102        86.6983 
 479   0.0000       3.189020        86.7776 
 480   0.0000       3.197436        87.0067 
 481   0.0000       3.211528        87.3901 
 482   0.0000       3.226581        87.7997 
 483   0.0000       3.255747        88.5934 
 484   0.0000       3.276611        89.1611 
 485   0.0000       3.315657        90.2236 
 486   0.0000       3.328997        90.5866 
 487   0.0000       3.348529        91.1181 
 488   0.0000       3.362952        91.5106 
 489   0.0000       3.371172        91.7343 
 490   0.0000       3.392497        92.3146 
 491   0.0000       3.416730        92.9739 
 492   0.0000       3.447780        93.8189 
 493   0.0000       3.471155        94.4549 
 494   0.0000       3.485040        94.8328 
 495   0.0000       3.490911        94.9925 
 496   0.0000       3.503494        95.3349 
 497   0.0000       3.509922        95.5098 
 498   0.0000       3.537392        96.2573 
 499   0.0000       3.540185        96.3333 
 500   0.0000       3.552971        96.6813 
 501   0.0000       3.557198        96.7963 
 502   0.0000       3.580326        97.4256 
 503   0.0000       3.585881        97.5768 
 504   0.0000       3.622080        98.5618 
 505   0.0000       3.630284        98.7851 
 506   0.0000       3.651526        99.3631 
 507   0.0000       3.658856        99.5625 
 508   0.0000       3.663936        99.7008 
 509   0.0000       3.684820       100.2691 
 510   0.0000       3.703530       100.7782 
 511   0.0000       3.715302       101.0985 
 512   0.0000       3.739661       101.7613 
 513   0.0000       3.752344       102.1065 
 514   0.0000       3.754780       102.1728 
 515   0.0000       3.776143       102.7541 
 516   0.0000       3.806243       103.5731 
 517   0.0000       3.807877       103.6176 
 518   0.0000       3.822246       104.0086 
 519   0.0000       3.824046       104.0576 
 520   0.0000       3.830529       104.2340 
 521   0.0000       3.841218       104.5249 
 522   0.0000       3.856512       104.9410 
 523   0.0000       3.861678       105.0816 
 524   0.0000       3.870177       105.3129 
 525   0.0000       3.888443       105.8099 
 526   0.0000       3.902433       106.1906 
 527   0.0000       3.915986       106.5594 
 528   0.0000       3.923158       106.7546 
 529   0.0000       3.927138       106.8629 
 530   0.0000       3.934606       107.0661 
 531   0.0000       3.979317       108.2827 
 532   0.0000       3.995656       108.7273 
 533   0.0000       4.012222       109.1781 
 534   0.0000       4.012708       109.1913 
 535   0.0000       4.032451       109.7286 
 536   0.0000       4.043944       110.0413 
 537   0.0000       4.050417       110.2174 
 538   0.0000       4.065798       110.6360 
 539   0.0000       4.072384       110.8152 
 540   0.0000       4.092252       111.3558 
 541   0.0000       4.123781       112.2138 
 542   0.0000       4.135943       112.5447 
 543   0.0000       4.151982       112.9812 
 544   0.0000       4.163613       113.2977 
 545   0.0000       4.184921       113.8775 
 546   0.0000       4.188646       113.9788 
 547   0.0000       4.207329       114.4872 
 548   0.0000       4.245040       115.5134 
 549   0.0000       4.269517       116.1795 
 550   0.0000       4.275938       116.3542 
 551   0.0000       4.282713       116.5385 
 552   0.0000       4.296873       116.9239 
 553   0.0000       4.317734       117.4915 
 554   0.0000       4.331706       117.8717 
 555   0.0000       4.341732       118.1445 
 556   0.0000       4.346460       118.2732 
 557   0.0000       4.357432       118.5718 
 558   0.0000       4.364857       118.7738 
 559   0.0000       4.370643       118.9313 
 560   0.0000       4.409827       119.9975 
 561   0.0000       4.432237       120.6073 
 562   0.0000       4.433225       120.6342 
 563   0.0000       4.449028       121.0642 
 564   0.0000       4.457280       121.2887 
 565   0.0000       4.480401       121.9179 
 566   0.0000       4.481430       121.9459 
 567   0.0000       4.506758       122.6351 
 568   0.0000       4.518808       122.9630 
 569   0.0000       4.529539       123.2550 
 570   0.0000       4.606083       125.3379 
 571   0.0000       4.620318       125.7252 
 572   0.0000       4.635040       126.1258 
 573   0.0000       4.648590       126.4946 
 574   0.0000       4.649992       126.5327 
 575   0.0000       4.683657       127.4488 
 576   0.0000       4.705903       128.0541 
 577   0.0000       4.710545       128.1804 
 578   0.0000       4.720738       128.4578 
 579   0.0000       4.725619       128.5906 
 580   0.0000       4.740410       128.9931 
 581   0.0000       4.768619       129.7607 
 582   0.0000       4.801409       130.6530 
 583   0.0000       4.818972       131.1309 
 584   0.0000       4.841467       131.7430 
 585   0.0000       4.850846       131.9982 
 586   0.0000       4.869736       132.5122 
 587   0.0000       4.888528       133.0236 
 588   0.0000       4.929019       134.1254 
 589   0.0000       4.939180       134.4019 
 590   0.0000       4.947548       134.6296 
 591   0.0000       4.954513       134.8192 
 592   0.0000       4.976914       135.4287 
 593   0.0000       4.988656       135.7482 
 594   0.0000       4.998208       136.0082 
 595   0.0000       5.008707       136.2938 
 596   0.0000       5.046909       137.3334 
 597   0.0000       5.054333       137.5354 
 598   0.0000       5.067924       137.9052 
 599   0.0000       5.110065       139.0519 
 600   0.0000       5.122810       139.3987 
 601   0.0000       5.150543       140.1534 
 602   0.0000       5.162971       140.4916 
 603   0.0000       5.169864       140.6791 
 604   0.0000       5.184966       141.0901 
 605   0.0000       5.198850       141.4679 
 606   0.0000       5.238224       142.5393 
 607   0.0000       5.262850       143.2094 
 608   0.0000       5.273529       143.5000 
 609   0.0000       5.278181       143.6266 
 610   0.0000       5.292136       144.0063 
 611   0.0000       5.343479       145.4035 
 612   0.0000       5.365513       146.0030 
 613   0.0000       5.374867       146.2576 
 614   0.0000       5.390236       146.6758 
 615   0.0000       5.408420       147.1706 
 616   0.0000       5.429271       147.7380 
 617   0.0000       5.456920       148.4903 
 618   0.0000       5.496901       149.5783 
 619   0.0000       5.503814       149.7664 
 620   0.0000       5.522534       150.2758 
 621   0.0000       5.526945       150.3958 
 622   0.0000       5.542885       150.8296 
 623   0.0000       5.566138       151.4623 
 624   0.0000       5.588855       152.0805 
 625   0.0000       5.622117       152.9856 
 626   0.0000       5.644260       153.5881 
 627   0.0000       5.668120       154.2374 
 628   0.0000       5.677728       154.4988 
 629   0.0000       5.688110       154.7814 
 630   0.0000       5.705675       155.2593 
 631   0.0000       5.718409       155.6058 
 632   0.0000       5.723761       155.7515 
 633   0.0000       5.746379       156.3669 
 634   0.0000       5.759665       156.7284 
 635   0.0000       5.791593       157.5973 
 636   0.0000       5.806919       158.0143 
 637   0.0000       5.820935       158.3957 
 638   0.0000       5.848513       159.1461 
 639   0.0000       5.876161       159.8985 
 640   0.0000       5.919223       161.0703 
 641   0.0000       5.944941       161.7701 
 642   0.0000       5.949802       161.9023 
 643   0.0000       5.969002       162.4248 
 644   0.0000       6.013390       163.6327 
 645   0.0000       6.028780       164.0515 
 646   0.0000       6.041453       164.3963 
 647   0.0000       6.064796       165.0315 
 648   0.0000       6.074626       165.2990 
 649   0.0000       6.101677       166.0351 
 650   0.0000       6.109190       166.2395 
 651   0.0000       6.136241       166.9756 
 652   0.0000       6.175914       168.0552 
 653   0.0000       6.184409       168.2863 
 654   0.0000       6.202659       168.7829 
 655   0.0000       6.245604       169.9515 
 656   0.0000       6.311595       171.7472 
 657   0.0000       6.316452       171.8794 
 658   0.0000       6.459967       175.7846 
 659   0.0000       6.463784       175.8885 
 660   0.0000       6.535137       177.8301 
 661   0.0000       6.588758       179.2892 
 662   0.0000       6.591036       179.3512 
 663   0.0000       6.660567       181.2432 
 664   0.0000       6.661898       181.2795 
 665   0.0000       6.680317       181.7807 
 666   0.0000       6.691088       182.0737 
 667   0.0000       6.694150       182.1571 
 668   0.0000       6.714382       182.7076 
 669   0.0000       6.745872       183.5645 
 670   0.0000       6.758846       183.9175 
 671   0.0000       6.810440       185.3215 
 672   0.0000       6.835848       186.0129 
 673   0.0000       6.860981       186.6968 
 674   0.0000       6.864976       186.8055 
 675   0.0000       6.893196       187.5734 
 676   0.0000       6.902661       187.8309 
 677   0.0000       6.910808       188.0526 
 678   0.0000       6.921927       188.3552 
 679   0.0000       6.940616       188.8638 
 680   0.0000       6.964008       189.5003 
 681   0.0000       6.977538       189.8685 
 682   0.0000       6.991535       190.2493 
 683   0.0000       7.014146       190.8646 
 684   0.0000       7.024719       191.1523 
 685   0.0000       7.078084       192.6045 
 686   0.0000       7.083561       192.7535 
 687   0.0000       7.118656       193.7085 
 688   0.0000       7.170616       195.1224 
 689   0.0000       7.233154       196.8241 
 690   0.0000       7.239331       196.9922 
 691   0.0000       7.286355       198.2718 
 692   0.0000       7.288621       198.3335 
 693   0.0000       7.297053       198.5629 
 694   0.0000       7.305906       198.8038 
 695   0.0000       7.474935       203.4033 
 696   0.0000       7.500701       204.1045 
 697   0.0000       7.544783       205.3040 
 698   0.0000       7.570885       206.0143 
 699   0.0000       7.592502       206.6025 
 700   0.0000       7.606846       206.9928 
 701   0.0000       7.651856       208.2176 
 702   0.0000       7.670397       208.7221 
 703   0.0000       7.717118       209.9935 
 704   0.0000       7.746068       210.7812 
 705   0.0000       7.771959       211.4858 
 706   0.0000       7.803750       212.3508 
 707   0.0000       7.942849       216.1359 
 708   0.0000       8.480191       230.7577 
 709   0.0000      12.368674       336.5687 
 710   0.0000      12.657307       344.4228 
 711   0.0000      13.595750       369.9592 
 712   0.0000      14.318554       389.6277 
 713   0.0000      14.664998       399.0549 
 714   0.0000      15.526480       422.4970 
 715   0.0000      15.935699       433.6324 
 716   0.0000      16.410383       446.5492 
 717   0.0000      16.690328       454.1669 
 718   0.0000      17.844420       485.5713 
 719   0.0000      19.136820       520.7394 
 720   0.0000      20.216362       550.1152 

                    ********************************
                    * MULLIKEN POPULATION ANALYSIS *
                    ********************************

-----------------------
MULLIKEN ATOMIC CHARGES
-----------------------
   0 C :    0.287930
   1 C :    0.100787
   2 N :    0.038007
   3 S :    0.317914
   4 S :    2.100552
   5 O :   -0.994166
   6 O :   -0.980042
   7 N :   -1.047718
   8 H :    0.135312
   9 C :    0.485418
  10 O :   -0.780269
  11 C :   -0.844305
  12 N :   -0.461349
  13 N :   -0.386899
  14 H :    0.121130
  15 H :    0.294823
  16 H :    0.292090
  17 H :    0.320787
Sum of atomic charges:   -1.0000000

--------------------------------
MULLIKEN REDUCED ORBITAL CHARGES
--------------------------------
  0 C s       :     3.227029  s :     3.227029
      pz      :     0.871616  p :     2.451802
      px      :     0.678576
      py      :     0.901610
      dz2     :     0.014720  d :     0.033453
      dxz     :     0.006146
      dyz     :     0.027832
      dx2y2   :    -0.022068
      dxy     :     0.006822
      f0      :     0.003298  f :    -0.000214
      f+1     :    -0.000291
      f-1     :     0.002025
      f+2     :    -0.000943
      f-2     :     0.002415
      f+3     :    -0.001606
      f-3     :    -0.005112
  1 C s       :     3.505706  s :     3.505706
      pz      :     0.866948  p :     2.355138
      px      :     0.654093
      py      :     0.834096
      dz2     :     0.010944  d :     0.023908
      dxz     :     0.021107
      dyz     :     0.033592
      dx2y2   :    -0.040780
      dxy     :    -0.000955
      f0      :     0.004785  f :     0.014461
      f+1     :     0.001072
      f-1     :     0.002574
      f+2     :     0.008458
      f-2     :     0.002585
      f+3     :    -0.004224
      f-3     :    -0.000789
  2 N s       :     3.582948  s :     3.582948
      pz      :     1.514163  p :     3.350706
      px      :     0.837763
      py      :     0.998781
      dz2     :    -0.005880  d :     0.019134
      dxz     :     0.024382
      dyz     :     0.002453
      dx2y2   :    -0.012603
      dxy     :     0.010782
      f0      :     0.000092  f :     0.009204
      f+1     :    -0.000406
      f-1     :    -0.000024
      f+2     :     0.002479
      f-2     :    -0.000564
      f+3     :    -0.002454
      f-3     :     0.010081
  3 S s       :     5.859718  s :     5.859718
      pz      :     3.625653  p :     9.725063
      px      :     2.823668
      py      :     3.275742
      dz2     :     0.015411  d :     0.095082
      dxz     :     0.023792
      dyz     :     0.011453
      dx2y2   :    -0.029063
      dxy     :     0.073488
      f0      :     0.001416  f :     0.002223
      f+1     :     0.000631
      f-1     :     0.001339
      f+2     :    -0.000359
      f-2     :     0.003306
      f+3     :     0.001516
      f-3     :    -0.005625
  4 S s       :     4.871325  s :     4.871325
      pz      :     2.619297  p :     8.027046
      px      :     2.703235
      py      :     2.704514
      dz2     :     0.212789  d :     0.905495
      dxz     :     0.169378
      dyz     :     0.151495
      dx2y2   :     0.196122
      dxy     :     0.175711
      f0      :     0.023971  f :     0.095582
      f+1     :     0.010203
      f-1     :     0.022818
      f+2     :     0.018947
      f-2     :     0.010807
      f+3     :     0.001630
      f-3     :     0.007206
  5 O s       :     3.968502  s :     3.968502
      pz      :     1.579139  p :     4.955867
      px      :     1.717789
      py      :     1.658938
      dz2     :     0.016821  d :     0.062779
      dxz     :     0.013309
      dyz     :     0.012584
      dx2y2   :     0.011502
      dxy     :     0.008563
      f0      :     0.001379  f :     0.007019
      f+1     :     0.000839
      f-1     :     0.001117
      f+2     :     0.001598
      f-2     :     0.000796
      f+3     :     0.000702
      f-3     :     0.000588
  6 O s       :     3.968123  s :     3.968123
      pz      :     1.809584  p :     4.946029
      px      :     1.821590
      py      :     1.314855
      dz2     :     0.006264  d :     0.058887
      dxz     :     0.002008
      dyz     :     0.019138
      dx2y2   :     0.015508
      dxy     :     0.015969
      f0      :     0.000826  f :     0.007003
      f+1     :     0.000257
      f-1     :     0.001108
      f+2     :     0.001221
      f-2     :     0.000516
      f+3     :     0.001963
      f-3     :     0.001112
  7 N s       :     3.930684  s :     3.930684
      pz      :     1.196766  p :     4.017390
      px      :     1.553737
      py      :     1.266887
      dz2     :     0.031478  d :     0.093255
      dxz     :     0.024724
      dyz     :     0.018956
      dx2y2   :     0.011686
      dxy     :     0.006410
      f0      :     0.001360  f :     0.006390
      f+1     :     0.001693
      f-1     :     0.001671
      f+2     :     0.000864
      f-2     :     0.000408
      f+3     :     0.000046
      f-3     :     0.000348
  8 H s       :     0.757251  s :     0.757251
      pz      :     0.040178  p :     0.088715
      px      :     0.045514
      py      :     0.003023
      dz2     :     0.001404  d :     0.018722
      dxz     :     0.001517
      dyz     :     0.007702
      dx2y2   :     0.002388
      dxy     :     0.005711
  9 C s       :     3.569528  s :     3.569528
      pz      :     0.667762  p :     1.828615
      px      :     0.564712
      py      :     0.596141
      dz2     :     0.008508  d :     0.076006
      dxz     :     0.001891
      dyz     :     0.068196
      dx2y2   :    -0.008865
      dxy     :     0.006275
      f0      :     0.002442  f :     0.040433
      f+1     :     0.002697
[...]
      f+1     :     0.056634
      f-1     :     0.044043
      f+2     :     0.099285
      f-2     :     0.098372
      f+3     :     0.135436
      f-3     :     0.241516
  2 N s       :     2.637308  s :     2.637308
      pz      :     1.053291  p :     3.031807
      px      :     0.989523
      py      :     0.988994
      dz2     :     0.068371  d :     0.632772
      dxz     :     0.114906
      dyz     :     0.059311
      dx2y2   :     0.190588
      dxy     :     0.199597
      f0      :     0.018005  f :     0.235456
      f+1     :     0.021235
      f-1     :     0.016966
      f+2     :     0.036186
      f-2     :     0.019192
      f+3     :     0.041604
      f-3     :     0.082268
  3 S s       :     4.942269  s :     4.942269
      pz      :     3.128139  p :     8.954312
      px      :     2.755105
      py      :     3.071067
      dz2     :     0.071341  d :     0.549256
      dxz     :     0.089735
      dyz     :     0.054490
      dx2y2   :     0.133525
      dxy     :     0.200166
      f0      :     0.018724  f :     0.282923
      f+1     :     0.026837
      f-1     :     0.022502
      f+2     :     0.016821
      f-2     :     0.055156
      f+3     :     0.069452
      f-3     :     0.073432
  4 S s       :     4.518339  s :     4.518339
      pz      :     2.756052  p :     8.133227
      px      :     2.667846
      py      :     2.709330
      dz2     :     0.543507  d :     2.342609
      dxz     :     0.420067
      dyz     :     0.483755
      dx2y2   :     0.483197
      dxy     :     0.412085
      f0      :     0.225736  f :     1.237997
      f+1     :     0.142329
      f-1     :     0.220642
      f+2     :     0.196331
      f-2     :     0.142891
      f+3     :     0.167279
      f-3     :     0.142789
  5 O s       :     3.346969  s :     3.346969
      pz      :     1.453959  p :     4.397525
      px      :     1.474276
      py      :     1.469289
      dz2     :     0.054608  d :     0.222478
      dxz     :     0.046276
      dyz     :     0.051603
      dx2y2   :     0.038726
      dxy     :     0.031264
      f0      :     0.010368  f :     0.068582
      f+1     :     0.009350
      f-1     :     0.012609
      f+2     :     0.011120
      f-2     :     0.014514
      f+3     :     0.006161
      f-3     :     0.004461
  6 O s       :     3.336018  s :     3.336018
      pz      :     1.503915  p :     4.406764
      px      :     1.492260
      py      :     1.410588
      dz2     :     0.033308  d :     0.232415
      dxz     :     0.011827
      dyz     :     0.057102
      dx2y2   :     0.066512
      dxy     :     0.063666
      f0      :     0.006650  f :     0.069787
      f+1     :     0.001653
      f-1     :     0.012928
      f+2     :     0.010493
      f-2     :     0.005316
      f+3     :     0.017218
      f-3     :     0.015529
  7 N s       :     2.923992  s :     2.923992
      pz      :     1.109516  p :     3.369338
      px      :     1.137348
      py      :     1.122474
      dz2     :     0.115523  d :     0.325316
      dxz     :     0.074876
      dyz     :     0.069230
      dx2y2   :     0.040743
      dxy     :     0.024944
      f0      :     0.033428  f :     0.114465
      f+1     :     0.026197
      f-1     :     0.025029
      f+2     :     0.011949
      f-2     :     0.009855
      f+3     :     0.005201
      f-3     :     0.002806
  8 H s       :     0.676444  s :     0.676444
      pz      :     0.149993  p :     0.560700
      px      :     0.168276
      py      :     0.242430
      dz2     :     0.039446  d :     0.352589
      dxz     :     0.020092
      dyz     :     0.103640
      dx2y2   :     0.092624
      dxy     :     0.096787
  9 C s       :     2.474788  s :     2.474788
      pz      :     0.536968  p :     2.162518
      px      :     0.794873
      py      :     0.830677
      dz2     :     0.135354  d :     1.347228
      dxz     :     0.161950
      dyz     :     0.258909
      dx2y2   :     0.397998
      dxy     :     0.393017
      f0      :     0.047443  f :     0.723810
      f+1     :     0.043677
      f-1     :     0.059462
      f+2     :     0.096979
      f-2     :     0.088956
      f+3     :     0.155839
      f-3     :     0.231453
 10 O s       :     3.192077  s :     3.192077
      pz      :     1.229911  p :     4.080590
      px      :     1.456072
      py      :     1.394607
      dz2     :     0.027260  d :     0.218400
      dxz     :     0.010233
      dyz     :     0.041646
      dx2y2   :     0.066188
      dxy     :     0.073073
      f0      :     0.005289  f :     0.074832
      f+1     :     0.003034
      f-1     :     0.009503
      f+2     :     0.009435
      f-2     :     0.005722
      f+3     :     0.017844
      f-3     :     0.024005
 11 C s       :     2.462394  s :     2.462394
      pz      :     0.780179  p :     2.293116
      px      :     0.738220
      py      :     0.774717
      dz2     :     0.092684  d :     0.479388
      dxz     :     0.095944
      dyz     :     0.051261
      dx2y2   :     0.122355
      dxy     :     0.117144
      f0      :     0.019280  f :     0.183656
      f+1     :     0.026014
      f-1     :     0.011106
      f+2     :     0.020331
      f-2     :     0.026026
      f+3     :     0.034120
      f-3     :     0.046779
 12 N s       :     2.854667  s :     2.854667
      pz      :     0.898240  p :     3.094529
      px      :     1.003963
      py      :     1.192327
      dz2     :     0.069260  d :     0.703829
      dxz     :     0.125471
      dyz     :     0.077934
      dx2y2   :     0.197699
      dxy     :     0.233466
      f0      :     0.020406  f :     0.304644
      f+1     :     0.024628
      f-1     :     0.019692
      f+2     :     0.060544
      f-2     :     0.011808
      f+3     :     0.064010
      f-3     :     0.103556
 13 N s       :     2.835047  s :     2.835047
      pz      :     0.908991  p :     3.072900
      px      :     0.975851
      py      :     1.188059
      dz2     :     0.073625  d :     0.688042
      dxz     :     0.141719
      dyz     :     0.059897
      dx2y2   :     0.208637
      dxy     :     0.204165
      f0      :     0.021630  f :     0.300346
      f+1     :     0.022672
      f-1     :     0.019398
      f+2     :     0.049471
      f-2     :     0.025339
      f+3     :     0.060277
      f-3     :     0.101560
 14 H s       :     0.573432  s :     0.573432
      pz      :     0.123152  p :     0.413031
      px      :     0.124268
      py      :     0.165611
      dz2     :     0.037390  d :     0.314145
      dxz     :     0.023253
      dyz     :     0.081126
      dx2y2   :     0.092319
      dxy     :     0.080057
 15 H s       :     0.633296  s :     0.633296
      pz      :     0.140618  p :     0.312640
      px      :     0.082980
      py      :     0.089042
      dz2     :     0.067593  d :     0.227495
      dxz     :     0.058656
      dyz     :     0.068141
      dx2y2   :     0.026055
      dxy     :     0.007050
 16 H s       :     0.633255  s :     0.633255
      pz      :     0.113784  p :     0.312498
      px      :     0.091180
      py      :     0.107534
      dz2     :     0.073772  d :     0.227367
      dxz     :     0.028528
      dyz     :     0.032219
      dx2y2   :     0.064786
      dxy     :     0.028063
 17 H s       :     0.637427  s :     0.637427
      pz      :     0.091054  p :     0.319344
      px      :     0.083057
      py      :     0.145234
      dz2     :     0.026404  d :     0.229249
      dxz     :     0.004908
      dyz     :     0.075280
      dx2y2   :     0.058478
      dxy     :     0.064179


                      *****************************
                      * MAYER POPULATION ANALYSIS *
                      *****************************

  NA   - Mulliken gross atomic population
  ZA   - Total nuclear charge
  QA   - Mulliken gross atomic charge
  VA   - Mayer's total valence
  BVA  - Mayer's bonded valence
  FA   - Mayer's free valence

  ATOM       NA         ZA         QA         VA         BVA        FA
  0 C      5.7121     6.0000     0.2879     3.3454     3.3454    -0.0000
  1 C      5.8992     6.0000     0.1008     3.2302     3.2302    -0.0000
  2 N      6.9620     7.0000     0.0380     2.7175     2.7175     0.0000
  3 S     15.6821    16.0000     0.3179     2.1067     2.1067     0.0000
  4 S     13.8994    16.0000     2.1006     4.7132     4.7132    -0.0000
  5 O      8.9942     8.0000    -0.9942     1.5265     1.5265    -0.0000
  6 O      8.9800     8.0000    -0.9800     1.4851     1.4851     0.0000
  7 N      8.0477     7.0000    -1.0477     2.5560     2.5560     0.0000
  8 H      0.8647     1.0000     0.1353     1.0743     1.0743    -0.0000
  9 C      5.5146     6.0000     0.4854     2.6450     2.6450    -0.0000
 10 O      8.7803     8.0000    -0.7803     1.4374     1.4374     0.0000
 11 C      6.8443     6.0000    -0.8443     3.4161     3.4161    -0.0000
 12 N      7.4613     7.0000    -0.4613     1.5313     1.5313     0.0000
 13 N      7.3869     7.0000    -0.3869     1.4992     1.4992    -0.0000
 14 H      0.8789     1.0000     0.1211     1.0427     1.0427    -0.0000
 15 H      0.7052     1.0000     0.2948     1.0135     1.0135    -0.0000
 16 H      0.7079     1.0000     0.2921     1.0170     1.0170    -0.0000
 17 H      0.6792     1.0000     0.3208     0.9644     0.9644    -0.0000

  Mayer bond orders larger than 0.100000
B(  0-C ,  3-S ) :   0.9828 B(  0-C ,  4-S ) :   0.7456 B(  0-C ,  7-N ) :   0.1715 
B(  0-C , 12-N ) :   1.3806 B(  1-C ,  2-N ) :   0.8223 B(  1-C ,  3-S ) :   1.0936 
B(  1-C ,  9-C ) :  -0.2317 B(  1-C , 10-O ) :   0.1165 B(  1-C , 13-N ) :   1.5100 
B(  2-N ,  9-C ) :   0.9556 B(  2-N , 13-N ) :  -0.1120 B(  2-N , 14-H ) :   1.0582 
B(  4-S ,  5-O ) :   1.2091 B(  4-S ,  6-O ) :   1.2485 B(  4-S ,  7-N ) :   1.2543 
B(  4-S ,  8-H ) :   0.1011 B(  4-S , 12-N ) :   0.1328 B(  5-O ,  7-N ) :   0.1280 
B(  7-N ,  8-H ) :   0.9180 B(  9-C , 10-O ) :   1.5034 B(  9-C , 11-C ) :   0.4841 
B( 11-C , 15-H ) :   0.9849 B( 11-C , 16-H ) :   0.9860 B( 11-C , 17-H ) :   0.9205 


-------
TIMINGS
-------

Total SCF time: 0 days 0 hours 2 min 23 sec 

Total time                  ....     143.105 sec
Sum of individual times     ....     141.098 sec  ( 98.6%)

Fock matrix formation       ....     135.895 sec  ( 95.0%)
  Split-RI-J                ....       8.444 sec  (  6.2% of F)
  Chain of spheres X        ....     110.331 sec  ( 81.2% of F)
  XC integration            ....      15.978 sec  ( 11.8% of F)
    Basis function eval.    ....       2.834 sec  ( 17.7% of XC)
    Density eval.           ....       5.671 sec  ( 35.5% of XC)
    XC-Functional eval.     ....       0.205 sec  (  1.3% of XC)
    XC-Potential eval.      ....       5.478 sec  ( 34.3% of XC)
Diagonalization             ....       0.976 sec  (  0.7%)
Density matrix formation    ....       0.091 sec  (  0.1%)
Population analysis         ....       0.098 sec  (  0.1%)
Initial guess               ....       0.809 sec  (  0.6%)
Orbital Transformation      ....       0.000 sec  (  0.0%)
Orbital Orthonormalization  ....       0.000 sec  (  0.0%)
DIIS solution               ....       0.466 sec  (  0.3%)
SOSCF solution              ....       0.942 sec  (  0.7%)
Grid generation             ....       1.822 sec  (  1.3%)

Maximum memory used throughout the entire SCF-calculation: 156.2 MB


           ************************************************************
           *        Program running with 8 parallel MPI-processes     *
           *              working on a common directory               *
           ************************************************************

------------------------------------------------------------------------------
                                ORCA  MP2 
------------------------------------------------------------------------------

Freezing NCore=42 chemical core electrons

   <<< Use J-auxbasis for calculation of Separable RI-J derivative contributions (Dim=696) >>> 


-------------
RI-MP2 ENERGY
-------------
Dimension of the basis                    ...  721
Memory devoted to MP2                     ... 5000 MB   
Data format for buffers                   ... DOUBLE
Compression type for matrix containers    ... UNCOMPRESSED
Scaling for aa/bb pairs                   ...   2.500e-01
Scaling for ab pairs                      ...   5.300e-01
Overall scaling of the MP2 energy         ...   1.000e+00
Calculating two index integrals           ... done (    0.031 sec)
Cholesky decomposition of V**-1           ... done (    0.240 sec)

-----------------
RI-TRANSFORMATION (AUX index driven)
-----------------

Dimension of the orbital-basis         ... 721
Dimension of the aux-basis             ... 1690
Transformation of internal/external MOs...   21-  56 to   57- 720
Number Format for Storage              ... Double (8 Byte)
Integral mode                          ... Direct

First Phase: integral generation and transformation of MO indices
  Aux angular momentum 0               ... done (    0.261 sec)
  Aux angular momentum 1               ... done (    0.447 sec)
  Aux angular momentum 2               ... done (    0.656 sec)
  Aux angular momentum 3               ... done (    0.684 sec)
  Aux angular momentum 4               ... done (    0.416 sec)
Closing buffer VIA ( 0.30 GB; CompressionRatio= 1.00)
  Phase 1 completed in     2.812 sec
Second Phase: sorting and transformation of aux index

IA-Transformation
Memory available                       ... 4922 MB 
Max. # MO pairs treated in a batch     ... 5    
# of internal orbitals                 ... 36
# batches for internal orbitals        ... 1
Closing buffer IAV ( 0.30 GB; CompressionRatio= 1.00)
(ia|v) transformation done in     0.487 sec

  Phase 2 completed in     0.577 sec
RI-Integral transformation completed in     3.393 sec
Opening buffers                              ... done

Starting loop over batches of integrals:

Operator 0  - window                       ... ( 21- 56)x( 57-720)
Operator 0  - Memory available             ...  5000 MB
Operator 0  - Memory needed per MO         ...   8.6 MB
Operator 0  - Number of orbitals per batch ... 5
Operator 0  - Number of batches            ... 1

OPERATOR  0   PASS   0:  MOs    21 ...   25 +   26 ...   30 +   31 ...   35 +   36 ...   40
                            +   41 ...   45 +   46 ...   50 +   51 ...   55 +   56 ...   56
  Reading integrals       ... ok
  Internal MO  23
Time spent in pair loops =     0.525 sec
Deleting buffer (Ka|jb)[aa] ...done

-----------------------------------------------
 RI-MP2 CORRELATION ENERGY:     -1.330016175 Eh
-----------------------------------------------


-------
TIMINGS
-------

Total time                :    9.329 sec
Integral trafo            :    3.407 sec ( 36.5%)
I/O of integrals          :    0.021 sec (  0.2%)
K(i,j) Operators          :    0.401 sec (  4.3%)
T(i,j) pair energies      :    0.058 sec (  0.6%)
V-calculation             :    0.031 sec (  0.3%)
V**(-1/2)                 :    0.240 sec (  2.6%)
Gamma(ia|P)               :    0.000 sec (  0.0%)
Gamma-Trafo               :    0.000 sec (  0.0%)
D(virtual)                :    0.000 sec (  0.0%)
D(internal)               :    0.000 sec (  0.0%)
W(virtual)                :    0.000 sec (  0.0%)
W(internal)               :    0.000 sec (  0.0%)
L(virtual)                :    0.000 sec (  0.0%)
L(internal)               :    0.000 sec (  0.0%)
G(D)                      :    0.000 sec (  0.0%)
G(Z)                      :    0.000 sec (  0.0%)
Z-Vector Solution         :    0.000 sec (  0.0%)
3-Index Derivative        :    0.000 sec (  0.0%)
2-Index Derivative        :    0.000 sec (  0.0%)
Separable Gradient (RIJ)  :    0.000 sec (  0.0%)
Separable Gradient (COSX) :    0.000 sec (  0.0%)


---------------------------------------
MP2 TOTAL ENERGY:    -1395.197097196 Eh
---------------------------------------

Maximum memory used throughout the entire MP2-calculation: 181.6 MB


-------------------------------------------------------------------------------
                          DFT DISPERSION CORRECTION                            
                                                                               
                              DFTD3 V3.1  Rev 1                                
                          USING Becke-Johnson damping                          
-------------------------------------------------------------------------------
The DSD-PBEP86 functional is recognized
Active option DFTDOPT                   ...         4   

molecular C6(AA) [au] = 6060.993833 


            DFT-D V3
 parameters
 s6 scaling factor         :     0.4180 
 a1 scaling factor         :     0.0000 
 s8 scaling factor         :     0.0000 
 a2 scaling factor         :     5.6500 
 ad hoc parameters k1-k3   :    16.0000     1.3333    -4.0000 

 Edisp/kcal,au: -9.065241578923  -0.014446380472 
 E6   /kcal   :  -9.065241579 
 E8   /kcal   :  -0.000000000 
 % E8         :   0.000000000 

-------------------------   ----------------
Dispersion correction           -0.014446380
-------------------------   ----------------


-------------------------   --------------------
FINAL SINGLE POINT ENERGY     -1395.211543576936
-------------------------   --------------------


                            ***************************************
                            *     ORCA property calculations      *
                            ***************************************


  WARNING: The energy has been calculated at the MP2 level but the densities
           used in the property calculations are still SCF densities
           MP2 response densities have not been calculated 
           use %mp2 Density relaxed end
           or  %mp2 Density unrelaxed end

                                    ---------------------
                                    Active property flags
                                    ---------------------
   (+) Dipole Moment


------------------------------------------------------------------------------
                       ORCA ELECTRIC PROPERTIES CALCULATION
------------------------------------------------------------------------------

Dipole Moment Calculation                       ... on
Quadrupole Moment Calculation                   ... off
Polarizability Calculation                      ... off
GBWName                                         ... A.25.avtz.gbw
Electron density                                ... A.25.avtz.scfp
The origin for moment calculation is the CENTER OF MASS  = ( 0.259243,  0.031444  0.193447)

-------------
DIPOLE MOMENT
-------------
                                X             Y             Z
Electronic contribution:      9.32535      -1.38035       0.30300
Nuclear contribution   :    -14.86995       2.37855       0.27465
                        -----------------------------------------
Total Dipole Moment    :     -5.54461       0.99821       0.57765
                        -----------------------------------------
Magnitude (a.u.)       :      5.66328
Magnitude (Debye)      :     14.39492



--------------------
Rotational spectrum 
--------------------
 
Rotational constants in cm-1:     0.064230     0.010517     0.009576 
Rotational constants in MHz :  1925.573673   315.277377   287.070778 

 Dipole components along the rotational axes: 
x,y,z [a.u.] :     5.560873    -1.070947    -0.050238 
x,y,z [Debye]:    14.134615    -2.722131    -0.127694 

 

Timings for individual modules:

Sum of individual times         ...      158.230 sec (=   2.637 min)
GTO integral calculation        ...        3.060 sec (=   0.051 min)   1.9 %
SCF iterations                  ...      144.627 sec (=   2.410 min)  91.4 %
MP2 module                      ...       10.544 sec (=   0.176 min)   6.7 %
                             ****ORCA TERMINATED NORMALLY****
TOTAL RUN TIME: 0 days 0 hours 2 minutes 40 seconds 428 msec
