
                                 *****************
                                 * O   R   C   A *
                                 *****************

                                            #,                                       
                                            ###                                      
                                            ####                                     
                                            #####                                    
                                            ######                                   
                                           ########,                                 
                                     ,,################,,,,,                         
                               ,,#################################,,                 
                          ,,##########################################,,             
                       ,#########################################, ''#####,          
                    ,#############################################,,   '####,        
                  ,##################################################,,,,####,       
                ,###########''''           ''''###############################       
              ,#####''   ,,,,##########,,,,          '''####'''          '####       
            ,##' ,,,,###########################,,,                        '##       
           ' ,,###''''                  '''############,,,                           
         ,,##''                                '''############,,,,        ,,,,,,###''
      ,#''                                            '''#######################'''  
     '                                                          ''''####''''         
             ,#######,   #######,   ,#######,      ##                                
            ,#'     '#,  ##    ##  ,#'     '#,    #''#        ######   ,####,        
            ##       ##  ##   ,#'  ##            #'  '#       #        #'  '#        
            ##       ##  #######   ##           ,######,      #####,   #    #        
            '#,     ,#'  ##    ##  '#,     ,#' ,#      #,         ##   #,  ,#        
             '#######'   ##     ##  '#######'  #'      '#     #####' # '####'        



                  #######################################################
                  #                        -***-                        #
                  #          Department of theory and spectroscopy      #
                  #    Directorship and core code : Frank Neese         #
                  #        Max Planck Institute fuer Kohlenforschung    #
                  #                Kaiser Wilhelm Platz 1               #
                  #                 D-45470 Muelheim/Ruhr               #
                  #                      Germany                        #
                  #                                                     #
                  #                  All rights reserved                #
                  #                        -***-                        #
                  #######################################################


                         Program Version 5.0.3 -  RELEASE  -


 With contributions from (in alphabetic order):
   Daniel Aravena         : Magnetic Suceptibility
   Michael Atanasov       : Ab Initio Ligand Field Theory (pilot matlab implementation)
   Alexander A. Auer      : GIAO ZORA, VPT2 properties, NMR spectrum
   Ute Becker             : Parallelization
   Giovanni Bistoni       : ED, misc. LED, open-shell LED, HFLD
   Martin Brehm           : Molecular dynamics
   Dmytro Bykov           : SCF Hessian
   Vijay G. Chilkuri      : MRCI spin determinant printing, contributions to CSF-ICE
   Dipayan Datta          : RHF DLPNO-CCSD density
   Achintya Kumar Dutta   : EOM-CC, STEOM-CC
   Dmitry Ganyushin       : Spin-Orbit,Spin-Spin,Magnetic field MRCI
   Miquel Garcia          : C-PCM and meta-GGA Hessian, CC/C-PCM, Gaussian charge scheme
   Yang Guo               : DLPNO-NEVPT2, F12-NEVPT2, CIM, IAO-localization
   Andreas Hansen         : Spin unrestricted coupled pair/coupled cluster methods
   Benjamin Helmich-Paris : MC-RPA, TRAH-SCF, COSX integrals
   Lee Huntington         : MR-EOM, pCC
   Robert Izsak           : Overlap fitted RIJCOSX, COSX-SCS-MP3, EOM
   Marcus Kettner         : VPT2
   Christian Kollmar      : KDIIS, OOCD, Brueckner-CCSD(T), CCSD density, CASPT2, CASPT2-K
   Simone Kossmann        : Meta GGA functionals, TD-DFT gradient, OOMP2, MP2 Hessian
   Martin Krupicka        : Initial AUTO-CI
   Lucas Lang             : DCDCAS
   Marvin Lechner         : AUTO-CI (C++ implementation), FIC-MRCC
   Dagmar Lenk            : GEPOL surface, SMD
   Dimitrios Liakos       : Extrapolation schemes; Compound Job, initial MDCI parallelization
   Dimitrios Manganas     : Further ROCIS development; embedding schemes
   Dimitrios Pantazis     : SARC Basis sets
   Anastasios Papadopoulos: AUTO-CI, single reference methods and gradients
   Taras Petrenko         : DFT Hessian,TD-DFT gradient, ASA, ECA, R-Raman, ABS, FL, XAS/XES, NRVS
   Peter Pinski           : DLPNO-MP2, DLPNO-MP2 Gradient
   Christoph Reimann      : Effective Core Potentials
   Marius Retegan         : Local ZFS, SOC
   Christoph Riplinger    : Optimizer, TS searches, QM/MM, DLPNO-CCSD(T), (RO)-DLPNO pert. Triples
   Tobias Risthaus        : Range-separated hybrids, TD-DFT gradient, RPA, STAB
   Michael Roemelt        : Original ROCIS implementation
   Masaaki Saitow         : Open-shell DLPNO-CCSD energy and density
   Barbara Sandhoefer     : DKH picture change effects
   Avijit Sen             : IP-ROCIS
   Kantharuban Sivalingam : CASSCF convergence, NEVPT2, FIC-MRCI
   Bernardo de Souza      : ESD, SOC TD-DFT
   Georgi Stoychev        : AutoAux, RI-MP2 NMR, DLPNO-MP2 response
   Willem Van den Heuvel  : Paramagnetic NMR
   Boris Wezisla          : Elementary symmetry handling
   Frank Wennmohs         : Technical directorship


 We gratefully acknowledge several colleagues who have allowed us to
 interface, adapt or use parts of their codes:
   Stefan Grimme, W. Hujo, H. Kruse, P. Pracht,  : VdW corrections, initial TS optimization,
                  C. Bannwarth, S. Ehlert          DFT functionals, gCP, sTDA/sTD-DF
   Ed Valeev, F. Pavosevic, A. Kumar             : LibInt (2-el integral package), F12 methods
   Garnet Chan, S. Sharma, J. Yang, R. Olivares  : DMRG
   Ulf Ekstrom                                   : XCFun DFT Library
   Mihaly Kallay                                 : mrcc  (arbitrary order and MRCC methods)
   Jiri Pittner, Ondrej Demel                    : Mk-CCSD
   Frank Weinhold                                : gennbo (NPA and NBO analysis)
   Christopher J. Cramer and Donald G. Truhlar   : smd solvation model
   Lars Goerigk                                  : TD-DFT with DH, B97 family of functionals
   V. Asgeirsson, H. Jonsson                     : NEB implementation
   FAccTs GmbH                                   : IRC, NEB, NEB-TS, DLPNO-Multilevel, CI-OPT
                                                   MM, QMMM, 2- and 3-layer-ONIOM, Crystal-QMMM,
                                                   LR-CPCM, SF, NACMEs, symmetry and pop. for TD-DFT,
                                                   nearIR, NL-DFT gradient (VV10), updates on ESD,
                                                   ML-optimized integration grids
   S Lehtola, MJT Oliveira, MAL Marques          : LibXC Library
   Liviu Ungur et al                             : ANISO software


 Your calculation uses the libint2 library for the computation of 2-el integrals
 For citations please refer to: http://libint.valeyev.net

 Your ORCA version has been built with support for libXC version: 5.1.0
 For citations please refer to: https://tddft.org/programs/libxc/

 This ORCA versions uses:
   CBLAS   interface :  Fast vector & matrix operations
   LAPACKE interface :  Fast linear algebra routines
   SCALAPACK package :  Parallel linear algebra routines
   Shared memory     :  Shared parallel matrices
   BLAS/LAPACK       :  OpenBLAS 0.3.15  USE64BITINT DYNAMIC_ARCH NO_AFFINITY SkylakeX SINGLE_THREADED
        Core in use  :  SkylakeX
   Copyright (c) 2011-2014, The OpenBLAS Project


Your calculation utilizes the atom-pairwise dispersion correction
with the Becke-Johnson damping scheme (D3BJ)
Cite in your paper:
S.Grimme, S.Ehrlich, L.Goerigk, J Comput Chem, (2011), 32, 1456–1465 
S.Grimme, J.Antony, S.Ehrlich and H.Krieg, J.Chem.Phys., 132, (2010), 154104 
   

================================================================================

----- Orbital basis set information -----
Your calculation utilizes the basis: aug-cc-pVTZ 
    H, B-Ne : Obtained from the ccRepo (grant-hill.group.shef.ac.uk/ccrepo) Feb. 2017
              R. A. Kendall, T. H. Dunning, Jr., R. J. Harrison, J. Chem. Phys. 96, 6796 (1992)
         He : Obtained from the ccRepo (grant-hill.group.shef.ac.uk/ccrepo) Feb. 2017
              D. E. Woon, T. H. Dunning, Jr., J. Chem. Phys. 100, 2975 (1994)
  Li-Be, Na : Obtained from the ccRepo (grant-hill.group.shef.ac.uk/ccrepo) Feb. 2017
              B. P. Prascher, D. E. Woon, K. A. Peterson, T. H. Dunning, Jr., A. K. Wilson, Theor. Chem. Acc. 128, 69 (2011)
         Mg : Obtained from the Peterson Research Group Website (tyr0.chem.wsu.edu/~kipeters) Feb. 2017
              B. P. Prascher, D. E. Woon, K. A. Peterson, T. H. Dunning, Jr., A. K. Wilson, Theor. Chem. Acc. 128, 69 (2011)
      Al-Ar : Obtained from the ccRepo (grant-hill.group.shef.ac.uk/ccrepo) Feb. 2017
              D. E. Woon, T. H. Dunning, Jr., J. Chem. Phys. 98, 1358 (1993)
      Sc-Zn : Obtained from the ccRepo (grant-hill.group.shef.ac.uk/ccrepo) Feb. 2017
              N. B. Balabanov, K. A. Peterson, J. Chem. Phys. 123, 064107 (2005)
              N. B. Balabanov, K. A. Peterson, J. Chem. Phys. 125, 074110 (2006)
      Ga-Kr : Obtained from the ccRepo (grant-hill.group.shef.ac.uk/ccrepo) Feb. 2017
              A. K. Wilson, D. E. Woon, K. A. Peterson, T. H. Dunning, Jr., J. Chem. Phys. 110, 7667 (1999)
     Ag, Au : Obtained from the Peterson Research Group Website (tyr0.chem.wsu.edu/~kipeters) Feb. 2017
              K. A. Peterson, C. Puzzarini, Theor. Chem. Acc. 114, 283 (2005)

----- AuxJ basis set information -----
Your calculation utilizes the auxiliary basis: def2/J
   F. Weigend, Phys. Chem. Chem. Phys. 8, 1057 (2006).

----- AuxC basis set information -----
Your calculation utilizes the auxiliary basis: aug-cc-pVTZ/C 
  H-He, B-F, Al-Ar, Ga-Kr : Obtained from the EMSL Basis Set Exchange (bse.pnl.gov) Feb. 2017
                            F. Weigend, A. Kohn, C. Hattig, J. Chem. Phys. 116, 3175 (2002)
                   Be, Mg : Obtained from the TURBOMOLE 7.0 basis set library
                            C. Haettig, Phys. Chem. Chem. Phys. 7, 59 (2005)
                       Ne : Obtained from the EMSL Basis Set Exchange (bse.pnl.gov) Feb. 2017
                            C. Haettig, Phys. Chem. Chem. Phys. 7, 59 (2005)
                            F. Weigend, A. Kohn, C. Hattig, J. Chem. Phys. 116, 3175 (2002)
                    Sc-Zn : Obtained from the EMSL Basis Set Exchange (bse.pnl.gov) Feb. 2017
                            J. G. Hill, J. A. Platts, J. Chem. Phys. 128, 044104 (2008)

================================================================================
                                        WARNINGS
                       Please study these warnings very carefully!
================================================================================


WARNING: No MP2 level density has been requested!
         To caclulate MP2 level properties use
         %mp2 Density relaxed end
         or
         %mp2 Density unrelaxed end
         Otherwise for double-hybrid DFT only the energy is correct!

WARNING: There are different parametrizations of Gershom Martin's DSD-DFs
         for use with and without D3(BJ)!
         You are using the D3(BJ) parametrized version,
         consistent with the GMTKN55 benchmark (L. Goerigk et al., PCCP 2017, 19, 32184)

WARNING: The frozen-core approximation is turned on by default for 
         the MP2 part of double-hybrid DFT.

INFO   : the flag for use of the SHARK integral package has been found!

================================================================================
                                       INPUT FILE
================================================================================
NAME = A.3.avtz.com
|  1> !PAL8
|  2> !RI-DSD-PBEP86 D3BJ aug-cc-pVTZ aug-cc-pVTZ/C TightSCF
|  3> %maxcore 5000
|  4> 
|  5> * xyz -1 1
|  6> C -1.2249286714  0.6228370278 -0.9237261105
|  7> C -2.4104239013  0.634556617 -1.6770217636
|  8> Cl -3.9787330842  0.3712191639 -0.9439005115
|  9> C -2.4534773281  0.8346745795 -3.0535864023
| 10> H -3.4013111005  0.8389197978 -3.5792869632
| 11> C -1.25767083  1.0206676849 -3.7279863998
| 12> Cl -1.276538854  1.2778087852 -5.4600254609
| 13> C -0.051399903  0.9982419295 -3.0532798306
| 14> H  0.8848265219  1.1336346681 -3.5824651855
| 15> C -0.0495782284  0.7963496303 -1.6694583898
| 16> Cl  1.55241797  0.7735658659 -0.9732699629
| 17> S -1.3255182354  0.3412722526  0.9429529039
| 18> O  0.0556362508  0.5199851894  1.3917544155
| 19> O -2.2759694849  1.4086343587  1.3132710695
| 20> N -1.8073527741 -1.1228960914  1.1423857524
| 21> H -2.8256673473 -1.1157294593  1.0753918393
| 22> *
| 23> 
| 24>                          ****END OF INPUT****
================================================================================

                       ****************************
                       * Single Point Calculation *
                       ****************************

---------------------------------
CARTESIAN COORDINATES (ANGSTROEM)
---------------------------------
  C     -1.224929    0.622837   -0.923726
  C     -2.410424    0.634557   -1.677022
  Cl    -3.978733    0.371219   -0.943901
  C     -2.453477    0.834675   -3.053586
  H     -3.401311    0.838920   -3.579287
  C     -1.257671    1.020668   -3.727986
  Cl    -1.276539    1.277809   -5.460025
  C     -0.051400    0.998242   -3.053280
  H      0.884827    1.133635   -3.582465
  C     -0.049578    0.796350   -1.669458
  Cl     1.552418    0.773566   -0.973270
  S     -1.325518    0.341272    0.942953
  O      0.055636    0.519985    1.391754
  O     -2.275969    1.408634    1.313271
  N     -1.807353   -1.122896    1.142386
  H     -2.825667   -1.115729    1.075392

----------------------------
CARTESIAN COORDINATES (A.U.)
----------------------------
  NO LB      ZA    FRAG     MASS         X           Y           Z
   0 C     6.0000    0    12.011   -2.314780    1.176991   -1.745589
   1 C     6.0000    0    12.011   -4.555041    1.199138   -3.169112
   2 Cl   17.0000    0    35.453   -7.518716    0.701503   -1.783713
   3 C     6.0000    0    12.011   -4.636400    1.577306   -5.770442
   4 H     1.0000    0     1.008   -6.427546    1.585329   -6.763872
   5 C     6.0000    0    12.011   -2.376653    1.928782   -7.044873
   6 Cl   17.0000    0    35.453   -2.412309    2.414709  -10.317953
   7 C     6.0000    0    12.011   -0.097132    1.886404   -5.769863
   8 H     1.0000    0     1.008    1.672080    2.142259   -6.769878
   9 C     6.0000    0    12.011   -0.093689    1.504883   -3.154819
  10 Cl   17.0000    0    35.453    2.933645    1.461828   -1.839214
  11 S    16.0000    0    32.060   -2.504866    0.644911    1.781923
  12 O     8.0000    0    15.999    0.105137    0.982630    2.630035
  13 O     8.0000    0    15.999   -4.300959    2.661933    2.481723
  14 N     7.0000    0    14.007   -3.415402   -2.121966    2.158796
  15 H     1.0000    0     1.008   -5.339737   -2.108423    2.032196

--------------------------------
INTERNAL COORDINATES (ANGSTROEM)
--------------------------------
 C      0   0   0     0.000000000000     0.00000000     0.00000000
 C      1   0   0     1.404631848516     0.00000000     0.00000000
 Cl     2   1   0     1.751115952087   122.01240434     0.00000000
 C      2   1   3     1.391700758422   123.90175775   180.86880385
 H      4   2   1     1.083867132868   120.48842759   180.37550342
 C      4   2   1     1.385410398684   118.30046413     0.66977625
 Cl     6   4   2     1.751124455020   119.46523866   180.10362778
 C      6   4   2     1.382324642894   120.89293365     0.47659013
 H      8   6   4     1.083922622786   120.89134663   179.36781880
 C      8   6   4     1.398472595009   119.10822728   359.42221573
 Cl    10   8   6     1.746879860024   113.41791052   179.21716449
 S      1   2   3     1.890472831283   119.07009177   359.02239214
 O     12   1   2     1.463198149720   103.55917670   185.15511340
 O     12   1   2     1.476399331816   100.03483077   305.47738088
 N     12   1   2     1.554260892938   106.46917111    67.35456834
 H     15  12   1     1.020541089324   107.11520139   276.02539140

---------------------------
INTERNAL COORDINATES (A.U.)
---------------------------
 C      0   0   0     0.000000000000     0.00000000     0.00000000
 C      1   0   0     2.654369512679     0.00000000     0.00000000
 Cl     2   1   0     3.309129578186   122.01240434     0.00000000
 C      2   1   3     2.629933293789   123.90175775   180.86880385
 H      4   2   1     2.048212046679   120.48842759   180.37550342
 C      4   2   1     2.618046236600   118.30046413     0.66977625
 Cl     6   4   2     3.309145646400   119.46523866   180.10362778
 C      6   4   2     2.612215003240   120.89293365     0.47659013
 H      8   6   4     2.048316907427   120.89134663   179.36781880
 C      8   6   4     2.642730210362   119.10822728   359.42221573
 Cl    10   8   6     3.301124524308   113.41791052   179.21716449
 S      1   2   3     3.572475914744   119.07009177   359.02239214
 O     12   1   2     2.765043782631   103.55917670   185.15511340
 O     12   1   2     2.789990401437   100.03483077   305.47738088
 N     12   1   2     2.937127428317   106.46917111    67.35456834
 H     15  12   1     1.928543167237   107.11520139   276.02539140

---------------------
BASIS SET INFORMATION
---------------------
There are 6 groups of distinct atoms

 Group   1 Type C   : 19s6p3d2f contracted to 5s4p3d2f pattern {88111/3111/111/11}
 Group   2 Type Cl  : 42s17p3d2f contracted to 6s5p3d2f pattern {131313111/77111/111/11}
 Group   3 Type H   : 6s3p2d contracted to 4s3p2d pattern {3111/111/11}
 Group   4 Type S   : 42s17p3d2f contracted to 6s5p3d2f pattern {131313111/77111/111/11}
 Group   5 Type O   : 19s6p3d2f contracted to 5s4p3d2f pattern {88111/3111/111/11}
 Group   6 Type N   : 19s6p3d2f contracted to 5s4p3d2f pattern {88111/3111/111/11}

Atom   0C    basis set group =>   1
Atom   1C    basis set group =>   1
Atom   2Cl   basis set group =>   2
Atom   3C    basis set group =>   1
Atom   4H    basis set group =>   3
Atom   5C    basis set group =>   1
Atom   6Cl   basis set group =>   2
Atom   7C    basis set group =>   1
Atom   8H    basis set group =>   3
Atom   9C    basis set group =>   1
Atom  10Cl   basis set group =>   2
Atom  11S    basis set group =>   4
Atom  12O    basis set group =>   5
Atom  13O    basis set group =>   5
Atom  14N    basis set group =>   6
Atom  15H    basis set group =>   3
---------------------------------
AUXILIARY/J BASIS SET INFORMATION
---------------------------------
There are 6 groups of distinct atoms

 Group   1 Type C   : 12s5p4d2f1g contracted to 6s4p3d1f1g pattern {711111/2111/211/2/1}
 Group   2 Type Cl  : 14s5p5d2f1g contracted to 8s4p3d1f1g pattern {71111111/2111/311/2/1}
 Group   3 Type H   : 5s2p1d contracted to 3s1p1d pattern {311/2/1}
 Group   4 Type S   : 14s5p5d2f1g contracted to 8s4p3d1f1g pattern {71111111/2111/311/2/1}
 Group   5 Type O   : 12s5p4d2f1g contracted to 6s4p3d1f1g pattern {711111/2111/211/2/1}
 Group   6 Type N   : 12s5p4d2f1g contracted to 6s4p3d1f1g pattern {711111/2111/211/2/1}

Atom   0C    basis set group =>   1
Atom   1C    basis set group =>   1
Atom   2Cl   basis set group =>   2
Atom   3C    basis set group =>   1
Atom   4H    basis set group =>   3
Atom   5C    basis set group =>   1
Atom   6Cl   basis set group =>   2
Atom   7C    basis set group =>   1
Atom   8H    basis set group =>   3
Atom   9C    basis set group =>   1
Atom  10Cl   basis set group =>   2
Atom  11S    basis set group =>   4
Atom  12O    basis set group =>   5
Atom  13O    basis set group =>   5
Atom  14N    basis set group =>   6
Atom  15H    basis set group =>   3
---------------------------------
AUXILIARY/C BASIS SET INFORMATION
---------------------------------
There are 6 groups of distinct atoms

 Group   1 Type C   : 9s7p6d4f2g contracted to 9s7p6d4f2g pattern {111111111/1111111/111111/1111/11}
 Group   2 Type Cl  : 11s9p8d6f3g contracted to 11s9p8d6f3g pattern {11111111111/111111111/11111111/111111/111}
 Group   3 Type H   : 5s4p3d2f contracted to 5s4p3d2f pattern {11111/1111/111/11}
 Group   4 Type S   : 11s9p8d6f3g contracted to 11s9p8d6f3g pattern {11111111111/111111111/11111111/111111/111}
 Group   5 Type O   : 9s7p6d4f2g contracted to 9s7p6d4f2g pattern {111111111/1111111/111111/1111/11}
 Group   6 Type N   : 9s7p6d4f2g contracted to 9s7p6d4f2g pattern {111111111/1111111/111111/1111/11}

Atom   0C    basis set group =>   1
Atom   1C    basis set group =>   1
Atom   2Cl   basis set group =>   2
Atom   3C    basis set group =>   1
Atom   4H    basis set group =>   3
Atom   5C    basis set group =>   1
Atom   6Cl   basis set group =>   2
Atom   7C    basis set group =>   1
Atom   8H    basis set group =>   3
Atom   9C    basis set group =>   1
Atom  10Cl   basis set group =>   2
Atom  11S    basis set group =>   4
Atom  12O    basis set group =>   5
Atom  13O    basis set group =>   5
Atom  14N    basis set group =>   6
Atom  15H    basis set group =>   3


           ************************************************************
           *        Program running with 8 parallel MPI-processes     *
           *              working on a common directory               *
           ************************************************************
------------------------------------------------------------------------------
                           ORCA GTO INTEGRAL CALCULATION
                           -- RI-GTO INTEGRALS CHOSEN --
------------------------------------------------------------------------------
------------------------------------------------------------------------------
                   ___                                                        
                  /   \      - P O W E R E D   B Y -                         
                 /     \                                                     
                 |  |  |   _    _      __       _____    __    __             
                 |  |  |  | |  | |    /  \     |  _  \  |  |  /  |          
                  \  \/   | |  | |   /    \    | | | |  |  | /  /          
                 / \  \   | |__| |  /  /\  \   | |_| |  |  |/  /          
                |  |  |   |  __  | /  /__\  \  |    /   |      \           
                |  |  |   | |  | | |   __   |  |    \   |  |\   \          
                \     /   | |  | | |  |  |  |  | |\  \  |  | \   \       
                 \___/    |_|  |_| |__|  |__|  |_| \__\ |__|  \__/        
                                                                              
                      - O R C A' S   B I G   F R I E N D -                    
                                      &                                       
                       - I N T E G R A L  F E E D E R -                       
                                                                              
 v1 FN, 2020, v2 2021                                                         
------------------------------------------------------------------------------


Reading SHARK input file A.3.avtz.SHARKINP.tmp ... ok
----------------------
SHARK INTEGRAL PACKAGE
----------------------

Number of atoms                             ...     16
Number of basis functions                   ...    837
Number of shells                            ...    331
Maximum angular momentum                    ...      3
Integral batch strategy                     ... SHARK/LIBINT Hybrid
RI-J (if used) integral strategy            ... SPLIT-RIJ (Revised 2003 algorithm where possible)
Printlevel                                  ...      1
Contraction scheme used                     ... PARTIAL GENERAL contraction
Coulomb Range Separation                    ... NOT USED
Exchange Range Separation                   ... NOT USED
Finite Nucleus Model                        ... NOT USED
Auxiliary Coulomb fitting basis             ... AVAILABLE
   # of basis functions in Aux-J            ...    678
   # of shells in Aux-J                     ...    218
   Maximum angular momentum in Aux-J        ...      4
Auxiliary J/K fitting basis                 ... NOT available
Auxiliary Correlation fitting basis         ... AVAILABLE
   # of basis functions in Aux-C            ...   1680
   # of shells in Aux-C                     ...    442
   Maximum angular momentum in Aux-C        ...      4
Auxiliary 'external' fitting basis          ... NOT available
Integral threshold                          ...     2.500000e-11
Primitive cut-off                           ...     2.500000e-12
Primitive pair pre-selection threshold      ...     2.500000e-12

Calculating pre-screening integrals         ... done (  0.1 sec) Dimension = 331
Calculating pre-screening integrals (ORCA)  ... done (  0.2 sec) Dimension = 217
Organizing shell pair data                  ... done (  0.4 sec)
Shell pair information
Total number of shell pairs                 ...     54946
Shell pairs after pre-screening             ...     38279
Total number of primitive shell pairs       ...     63226
Primitive shell pairs kept                  ...     42135
          la=0 lb=0:   7939 shell pairs
          la=1 lb=0:  10112 shell pairs
          la=1 lb=1:   2891 shell pairs
          la=2 lb=0:   6208 shell pairs
          la=2 lb=1:   3310 shell pairs
          la=2 lb=2:    967 shell pairs
          la=3 lb=0:   3534 shell pairs
          la=3 lb=1:   1883 shell pairs
          la=3 lb=2:   1102 shell pairs
          la=3 lb=3:    333 shell pairs

Calculating one electron integrals          ... done (  0.1 sec)
Calculating RI/J V-Matrix + Cholesky decomp.... done (  0.0 sec)
Calculating RI/C V-Matrix + Cholesky decomp.... done (  0.1 sec)
Calculating Nuclear repulsion               ... done (  0.0 sec) ENN=   1255.996483730141 Eh

SHARK setup successfully completed in   1.4 seconds

Maximum memory used throughout the entire GTOINT-calculation: 77.2 MB


           ************************************************************
           *        Program running with 8 parallel MPI-processes     *
           *              working on a common directory               *
           ************************************************************
-------------------------------------------------------------------------------
                                 ORCA SCF
-------------------------------------------------------------------------------

------------
SCF SETTINGS
------------
Hamiltonian:
 Density Functional     Method          .... DFT(GTOs)
 Exchange Functional    Exchange        .... PBE
   PBE kappa parameter   XKappa         ....  0.804000
   PBE mue parameter    XMuePBE         ....  0.219520
 Correlation Functional Correlation     .... P86
 LDA part of GGA corr.  LDAOpt          .... VWN-5
 Gradients option       PostSCFGGA      .... off
 Hybrid DFT is turned on
   Fraction HF Exchange ScalHFX         ....  0.700000
   Scaling of DF-GGA-X  ScalDFX         ....  0.300000
   Scaling of DF-GGA-C  ScalDFC         ....  0.430000
   Scaling of DF-LDA-C  ScalLDAC        ....  0.430000
   Perturbative correction              ....  1.000000
   Density functional embedding theory  .... OFF
   NL short-range parameter             .... 14.200000
 RI-approximation to the Coulomb term is turned on
   Number of AuxJ basis functions       .... 678
   RIJ-COSX (HFX calculated with COS-X)).... on


General Settings:
 Integral files         IntName         .... A.3.avtz
 Hartree-Fock type      HFTyp           .... RHF
 Total Charge           Charge          ....   -1
 Multiplicity           Mult            ....    1
 Number of Electrons    NEL             ....  130
 Basis Dimension        Dim             ....  683
 Nuclear Repulsion      ENuc            ....   1255.9964837301 Eh

Convergence Acceleration:
 DIIS                   CNVDIIS         .... on
   Start iteration      DIISMaxIt       ....    12
   Startup error        DIISStart       ....  0.200000
   # of expansion vecs  DIISMaxEq       ....     5
   Bias factor          DIISBfac        ....   1.050
   Max. coefficient     DIISMaxC        ....  10.000
 Trust-Rad. Augm. Hess. CNVTRAH         .... auto
   Auto Start mean grad. ratio tolernc. ....  1.125000
   Auto Start start iteration           ....    20
   Auto Start num. interpolation iter.  ....    10
   Max. Number of Micro iterations      ....    16
   Max. Number of Macro iterations      .... Maxiter - #DIIS iter
   Number of Davidson start vectors     ....     2
   Converg. threshold I  (grad. norm)   ....   1.000e-05
   Converg. threshold II (energy diff.) ....   1.000e-08
   Grad. Scal. Fac. for Micro threshold ....   0.100
   Minimum threshold for Micro iter.    ....   0.010
   NR start threshold (gradient norm)   ....   0.001
   Initial trust radius                 ....   0.400
   Minimum AH scaling param. (alpha)    ....   1.000
   Maximum AH scaling param. (alpha)    .... 1000.000
   Orbital update algorithm             .... Taylor
   White noise on init. David. guess    .... on
   Maximum white noise                  ....   0.010
   Quad. conv. algorithm                .... NR
 SOSCF                  CNVSOSCF        .... on
   Start iteration      SOSCFMaxIt      ....   150
   Startup grad/error   SOSCFStart      ....  0.003300
 Level Shifting         CNVShift        .... on
   Level shift para.    LevelShift      ....    0.2500
   Turn off err/grad.   ShiftErr        ....    0.0010
 Zerner damping         CNVZerner       .... off
 Static damping         CNVDamp         .... on
   Fraction old density DampFac         ....    0.7000
   Max. Damping (<1)    DampMax         ....    0.9800
   Min. Damping (>=0)   DampMin         ....    0.0000
   Turn off err/grad.   DampErr         ....    0.1000
 Fernandez-Rico         CNVRico         .... off

SCF Procedure:
 Maximum # iterations   MaxIter         ....   125
 SCF integral mode      SCFMode         .... Direct
   Integral package                     .... SHARK and LIBINT hybrid scheme
 Reset frequency        DirectResetFreq ....    20
 Integral Threshold     Thresh          ....  2.500e-11 Eh
 Primitive CutOff       TCut            ....  2.500e-12 Eh

Convergence Tolerance:
 Convergence Check Mode ConvCheckMode   .... Total+1el-Energy
 Convergence forced     ConvForced      .... 0
 Energy Change          TolE            ....  1.000e-08 Eh
 1-El. energy change                    ....  1.000e-05 Eh
 Orbital Gradient       TolG            ....  1.000e-05
 Orbital Rotation angle TolX            ....  1.000e-05
 DIIS Error             TolErr          ....  5.000e-07


Diagonalization of the overlap matrix:
Smallest eigenvalue                        ... 9.073e-07
Time for diagonalization                   ...    0.073 sec
Threshold for overlap eigenvalues          ... 1.000e-08
Number of eigenvalues below threshold      ... 0
Time for construction of square roots      ...    0.039 sec
Total time needed                          ...    0.116 sec

Time for model grid setup =    0.128 sec

------------------------------
INITIAL GUESS: MODEL POTENTIAL
------------------------------
Loading Hartree-Fock densities                     ... done
Calculating cut-offs                               ... done
Initializing the effective Hamiltonian             ... done
Setting up the integral package (SHARK)            ... done
Starting the Coulomb interaction                   ... done (   0.3 sec)
Reading the grid                                   ... done
Mapping shells                                     ... done
Starting the XC term evaluation                    ... done (   0.3 sec)
  promolecular density results
     # of electrons  =    128.999253654
     EX              =   -161.553662703
     EC              =     -0.022780968
     EX+EC           =   -161.576443671
Transforming the Hamiltonian                       ... done (   0.0 sec)
Diagonalizing the Hamiltonian                      ... done (   0.1 sec)
Back transforming the eigenvectors                 ... done (   0.0 sec)
Now organizing SCF variables                       ... done
                      ------------------
                      INITIAL GUESS DONE (   0.9 sec)
                      ------------------
-------------------
DFT GRID GENERATION
-------------------

General Integration Accuracy     IntAcc      ... 4.388
Radial Grid Type                 RadialGrid  ... OptM3 with GC (2021)
Angular Grid (max. ang.)         AngularGrid ... 4 (Lebedev-302)
Angular grid pruning method      GridPruning ... 4 (adaptive)
Weight generation scheme         WeightScheme... Becke
Basis function cutoff            BFCut       ... 1.0000e-11
Integration weight cutoff        WCut        ... 1.0000e-14
Angular grids for H and He will be reduced by one unit
Partially contracted basis set               ... off
Rotationally invariant grid construction     ... off

Total number of grid points                  ...    97157
Total number of batches                      ...     1527
Average number of points per batch           ...       63
Average number of grid points per atom       ...     6072
Time for grid setup =    0.560 sec

--------------------
COSX GRID GENERATION
--------------------

GRIDX 1
-------
General Integration Accuracy     IntAcc      ... 3.816
Radial Grid Type                 RadialGrid  ... OptM3 with GC (2021)
Angular Grid (max. ang.)         AngularGrid ... 1 (Lebedev-50)
Angular grid pruning method      GridPruning ... 4 (adaptive)
Weight generation scheme         WeightScheme... Becke
Basis function cutoff            BFCut       ... 1.0000e-11
Integration weight cutoff        WCut        ... 1.0000e-14
Angular grids for H and He will be reduced by one unit
Partially contracted basis set               ... on
Rotationally invariant grid construction     ... off

Total number of grid points                  ...    11870
Total number of batches                      ...      194
Average number of points per batch           ...       61
Average number of grid points per atom       ...      742
UseSFitting                                  ... on

GRIDX 2
-------
General Integration Accuracy     IntAcc      ... 4.020
Radial Grid Type                 RadialGrid  ... OptM3 with GC (2021)
Angular Grid (max. ang.)         AngularGrid ... 2 (Lebedev-110)
Angular grid pruning method      GridPruning ... 4 (adaptive)
Weight generation scheme         WeightScheme... Becke
Basis function cutoff            BFCut       ... 1.0000e-11
Integration weight cutoff        WCut        ... 1.0000e-14
Angular grids for H and He will be reduced by one unit
Partially contracted basis set               ... on
Rotationally invariant grid construction     ... off

Total number of grid points                  ...    30035
Total number of batches                      ...      479
Average number of points per batch           ...       62
Average number of grid points per atom       ...     1877
UseSFitting                                  ... on

GRIDX 3
-------
General Integration Accuracy     IntAcc      ... 4.338
Radial Grid Type                 RadialGrid  ... OptM3 with GC (2021)
Angular Grid (max. ang.)         AngularGrid ... 3 (Lebedev-194)
Angular grid pruning method      GridPruning ... 4 (adaptive)
Weight generation scheme         WeightScheme... Becke
Basis function cutoff            BFCut       ... 1.0000e-11
Integration weight cutoff        WCut        ... 1.0000e-14
Angular grids for H and He will be reduced by one unit
Partially contracted basis set               ... on
Rotationally invariant grid construction     ... off

Total number of grid points                  ...    68331
Total number of batches                      ...     1077
Average number of points per batch           ...       63
Average number of grid points per atom       ...     4271
UseSFitting                                  ... on

Time for X-Grid setup             =    1.005 sec

 re-compute Schwartz prescreening matrix in partically contracted basis (1) ...done (   0.093 sec)
--------------
SCF ITERATIONS
--------------
ITER       Energy         Delta-E        Max-DP      RMS-DP      [F,P]     Damp
               ***  Starting incremental Fock matrix formation  ***
  0  -2210.9781649175   0.000000000000 0.10378947  0.00152632  0.3339298 0.7000
  1  -2211.1644206648  -0.186255747286 0.07527639  0.00118435  0.1825168 0.7000
                               ***Turning on DIIS***
  2  -2211.2552191395  -0.090798474715 0.14730552  0.00263927  0.0830061 0.0000
  3  -2211.4075254636  -0.152306324042 0.04256970  0.00056308  0.0795538 0.0000
  4  -2211.4313096578  -0.023784194205 0.02230161  0.00027331  0.0071569 0.0000
  5  -2211.4322181842  -0.000908526462 0.00812479  0.00011027  0.0049867 0.0000
                      *** Initiating the SOSCF procedure ***
                           *** Shutting down DIIS ***
                      *** Re-Reading the Fockian *** 
                      *** Removing any level shift *** 
ITER      Energy       Delta-E        Grad      Rot      Max-DP    RMS-DP
  6  -2211.43248814  -0.0002699508  0.001445  0.001445  0.008172  0.000078
               *** Restarting incremental Fock matrix formation ***
  7  -2211.43261901  -0.0001308713  0.000791  0.002215  0.068815  0.000633
  8  -2211.43265277  -0.0000337608  0.000486  0.002809  0.038683  0.000362
  9  -2211.43266137  -0.0000086037  0.000280  0.000370  0.025247  0.000249
 10  -2211.43266499  -0.0000036142  0.000070  0.000165  0.011718  0.000075
 11  -2211.43266514  -0.0000001570  0.000026  0.000060  0.002135  0.000022
 12  -2211.43266522  -0.0000000740  0.000008  0.000036  0.006300  0.000039
 13  -2211.43266523  -0.0000000118  0.000003  0.000003  0.002609  0.000022
                  ***Gradient check signals convergence***
              ***Rediagonalizing the Fockian in SOSCF/NRSCF***

               *****************************************************
               *                     SUCCESS                       *
               *           SCF CONVERGED AFTER  14 CYCLES          *
               *****************************************************

Old exchange energy                            =   -114.286447870 Eh
New exchange energy                            =   -114.286526242 Eh
Exchange energy change after final integration =     -0.000078372 Eh
Total energy after final integration           =  -2211.432743602 Eh
Final COS-X integration done in                =    19.356 sec

----------------
TOTAL SCF ENERGY
----------------

Total Energy       :        -2211.43274360 Eh          -60176.14425 eV

Components:
Nuclear Repulsion  :         1255.99648373 Eh           34177.40187 eV
Electronic Energy  :        -3467.42922733 Eh          -94353.54612 eV
One Electron Energy:        -5566.63370150 Eh         -151475.80390 eV
Two Electron Energy:         2099.20447417 Eh           57122.25778 eV
Max COSX asymmetry :            0.00001328 Eh               0.00036 eV

Virial components:
Potential Energy   :        -4419.02761620 Eh         -120247.85472 eV
Kinetic Energy     :         2207.59487260 Eh           60071.71047 eV
Virial Ratio       :            2.00173849


DFT components:
N(Alpha)           :       65.000117951896 electrons
N(Beta)            :       65.000117951896 electrons
N(Total)           :      130.000235903793 electrons
E(X)               :      -48.761927827048 Eh       
E(C)               :       -2.325758949525 Eh       
E(XC)              :      -51.087686776573 Eh       
DFET-embed. en.    :        0.000000000000 Eh       

---------------
SCF CONVERGENCE
---------------

  Last Energy change         ...   -2.4816e-09  Tolerance :   1.0000e-08
  Last MAX-Density change    ...    5.5511e-15  Tolerance :   1.0000e-07
  Last RMS-Density change    ...    2.6970e-17  Tolerance :   5.0000e-09
  Last Orbital Gradient      ...    9.7306e-07  Tolerance :   1.0000e-05
  Last Orbital Rotation      ...    1.9547e-06  Tolerance :   1.0000e-05

             **** THE GBW FILE WAS UPDATED (A.3.avtz.gbw) ****
             **** DENSITY A.3.avtz.scfp WAS UPDATED ****
             **** ENERGY FILE WAS UPDATED (A.3.avtz.en.tmp) ****
             **** THE GBW FILE WAS UPDATED (A.3.avtz.gbw) ****
             **** DENSITY A.3.avtz.scfp WAS UPDATED ****
----------------
ORBITAL ENERGIES
----------------

  NO   OCC          E(Eh)            E(eV) 
   0   2.0000    -103.533350     -2817.2857 
   1   2.0000    -103.504871     -2816.5107 
   2   2.0000    -103.497345     -2816.3059 
   3   2.0000     -90.860967     -2472.4526 
   4   2.0000     -19.836728      -539.7848 
   5   2.0000     -19.835721      -539.7574 
   6   2.0000     -14.897206      -405.3736 
   7   2.0000     -10.818034      -294.3737 
   8   2.0000     -10.814650      -294.2816 
   9   2.0000     -10.813890      -294.2609 
  10   2.0000     -10.763590      -292.8922 
  11   2.0000     -10.761485      -292.8349 
  12   2.0000     -10.760378      -292.8048 
  13   2.0000     -10.081268      -274.3252 
  14   2.0000     -10.052935      -273.5543 
  15   2.0000     -10.045208      -273.3440 
  16   2.0000      -8.601737      -234.0652 
  17   2.0000      -7.654260      -208.2830 
  18   2.0000      -7.649982      -208.1666 
  19   2.0000      -7.649975      -208.1664 
  20   2.0000      -7.626115      -207.5171 
  21   2.0000      -7.621604      -207.3944 
  22   2.0000      -7.621293      -207.3859 
  23   2.0000      -7.618364      -207.3062 
  24   2.0000      -7.613837      -207.1830 
  25   2.0000      -7.613545      -207.1751 
  26   2.0000      -6.388771      -173.8473 
  27   2.0000      -6.385961      -173.7708 
  28   2.0000      -6.384924      -173.7426 
  29   2.0000      -1.152005       -31.3477 
  30   2.0000      -1.034895       -28.1609 
  31   2.0000      -1.010929       -27.5088 
  32   2.0000      -0.960907       -26.1476 
  33   2.0000      -0.947418       -25.7806 
  34   2.0000      -0.893607       -24.3163 
  35   2.0000      -0.880829       -23.9686 
  36   2.0000      -0.810945       -22.0669 
  37   2.0000      -0.805084       -21.9075 
  38   2.0000      -0.655424       -17.8350 
  39   2.0000      -0.645921       -17.5764 
  40   2.0000      -0.590311       -16.0632 
  41   2.0000      -0.522184       -14.2093 
  42   2.0000      -0.519714       -14.1421 
  43   2.0000      -0.474309       -12.9066 
  44   2.0000      -0.457668       -12.4538 
  45   2.0000      -0.440088       -11.9754 
  46   2.0000      -0.438618       -11.9354 
  47   2.0000      -0.424036       -11.5386 
  48   2.0000      -0.400951       -10.9104 
  49   2.0000      -0.395175       -10.7533 
  50   2.0000      -0.377943       -10.2843 
  51   2.0000      -0.366653        -9.9771 
  52   2.0000      -0.348896        -9.4939 
  53   2.0000      -0.330644        -8.9973 
  54   2.0000      -0.320560        -8.7229 
  55   2.0000      -0.301281        -8.1983 
  56   2.0000      -0.293024        -7.9736 
  57   2.0000      -0.288273        -7.8443 
  58   2.0000      -0.270812        -7.3692 
  59   2.0000      -0.243649        -6.6300 
  60   2.0000      -0.236333        -6.4309 
  61   2.0000      -0.216521        -5.8918 
  62   2.0000      -0.209810        -5.7092 
  63   2.0000      -0.204708        -5.5704 
  64   2.0000      -0.171578        -4.6689 
  65   0.0000       0.098255         2.6736 
  66   0.0000       0.100680         2.7396 
  67   0.0000       0.125538         3.4161 
  68   0.0000       0.130925         3.5627 
  69   0.0000       0.136563         3.7161 
  70   0.0000       0.140776         3.8307 
  71   0.0000       0.150560         4.0970 
  72   0.0000       0.152772         4.1571 
  73   0.0000       0.157569         4.2877 
  74   0.0000       0.162939         4.4338 
  75   0.0000       0.178387         4.8542 
  76   0.0000       0.180010         4.8983 
  77   0.0000       0.185201         5.0396 
  78   0.0000       0.188142         5.1196 
  79   0.0000       0.188963         5.1420 
  80   0.0000       0.195181         5.3111 
  81   0.0000       0.196052         5.3348 
  82   0.0000       0.200606         5.4588 
  83   0.0000       0.205430         5.5900 
  84   0.0000       0.211923         5.7667 
  85   0.0000       0.214157         5.8275 
  86   0.0000       0.219328         5.9682 
  87   0.0000       0.221427         6.0253 
  88   0.0000       0.230954         6.2846 
  89   0.0000       0.235527         6.4090 
  90   0.0000       0.238165         6.4808 
  91   0.0000       0.242775         6.6063 
  92   0.0000       0.252069         6.8592 
  93   0.0000       0.255437         6.9508 
  94   0.0000       0.257581         7.0091 
  95   0.0000       0.261216         7.1080 
  96   0.0000       0.265575         7.2267 
  97   0.0000       0.270176         7.3519 
  98   0.0000       0.271346         7.3837 
  99   0.0000       0.276255         7.5173 
 100   0.0000       0.284155         7.7323 
 101   0.0000       0.292381         7.9561 
 102   0.0000       0.297064         8.0835 
 103   0.0000       0.299273         8.1436 
 104   0.0000       0.299838         8.1590 
 105   0.0000       0.304790         8.2938 
 106   0.0000       0.311977         8.4893 
 107   0.0000       0.319672         8.6987 
 108   0.0000       0.321625         8.7519 
 109   0.0000       0.326115         8.8741 
 110   0.0000       0.326993         8.8979 
 111   0.0000       0.332971         9.0606 
 112   0.0000       0.335082         9.1181 
 113   0.0000       0.340070         9.2538 
 114   0.0000       0.349338         9.5060 
 115   0.0000       0.362779         9.8717 
 116   0.0000       0.363402         9.8887 
 117   0.0000       0.366019         9.9599 
 118   0.0000       0.369087        10.0434 
 119   0.0000       0.377109        10.2616 
 120   0.0000       0.380341        10.3496 
 121   0.0000       0.382934        10.4202 
 122   0.0000       0.384070        10.4511 
 123   0.0000       0.386016        10.5040 
 124   0.0000       0.389108        10.5882 
 125   0.0000       0.395644        10.7660 
 126   0.0000       0.399382        10.8677 
 127   0.0000       0.403794        10.9878 
 128   0.0000       0.412521        11.2253 
 129   0.0000       0.415968        11.3191 
 130   0.0000       0.423009        11.5107 
 131   0.0000       0.428429        11.6581 
 132   0.0000       0.429144        11.6776 
 133   0.0000       0.436786        11.8856 
 134   0.0000       0.441949        12.0261 
 135   0.0000       0.445435        12.1209 
 136   0.0000       0.455622        12.3981 
 137   0.0000       0.461111        12.5475 
 138   0.0000       0.466662        12.6985 
 139   0.0000       0.473310        12.8794 
 140   0.0000       0.480029        13.0623 
 141   0.0000       0.484509        13.1842 
 142   0.0000       0.491701        13.3799 
 143   0.0000       0.496203        13.5024 
 144   0.0000       0.503032        13.6882 
 145   0.0000       0.506792        13.7905 
 146   0.0000       0.512491        13.9456 
 147   0.0000       0.512707        13.9515 
 148   0.0000       0.520319        14.1586 
 149   0.0000       0.521710        14.1965 
 150   0.0000       0.527062        14.3421 
 151   0.0000       0.532045        14.4777 
 152   0.0000       0.533771        14.5247 
 153   0.0000       0.539889        14.6911 
 154   0.0000       0.541335        14.7305 
 155   0.0000       0.547902        14.9092 
 156   0.0000       0.552596        15.0369 
 157   0.0000       0.557196        15.1621 
 158   0.0000       0.559664        15.2292 
 159   0.0000       0.561570        15.2811 
 160   0.0000       0.571194        15.5430 
 161   0.0000       0.575052        15.6480 
 162   0.0000       0.582307        15.8454 
 163   0.0000       0.585738        15.9387 
 164   0.0000       0.588622        16.0172 
 165   0.0000       0.590801        16.0765 
 166   0.0000       0.607576        16.5330 
 167   0.0000       0.610680        16.6175 
 168   0.0000       0.613522        16.6948 
 169   0.0000       0.619518        16.8579 
 170   0.0000       0.627830        17.0841 
 171   0.0000       0.637292        17.3416 
 172   0.0000       0.641445        17.4546 
 173   0.0000       0.649129        17.6637 
 174   0.0000       0.655255        17.8304 
 175   0.0000       0.664490        18.0817 
 176   0.0000       0.671976        18.2854 
 177   0.0000       0.677755        18.4427 
 178   0.0000       0.683275        18.5929 
 179   0.0000       0.693055        18.8590 
 180   0.0000       0.695330        18.9209 
 181   0.0000       0.701343        19.0845 
 182   0.0000       0.702188        19.1075 
 183   0.0000       0.702785        19.1238 
 184   0.0000       0.706311        19.2197 
 185   0.0000       0.712355        19.3842 
 186   0.0000       0.714204        19.4345 
 187   0.0000       0.717967        19.5369 
 188   0.0000       0.722130        19.6502 
 189   0.0000       0.729237        19.8435 
 190   0.0000       0.752918        20.4879 
 191   0.0000       0.761732        20.7278 
 192   0.0000       0.767985        20.8979 
 193   0.0000       0.773921        21.0595 
 194   0.0000       0.776643        21.1335 
 195   0.0000       0.781006        21.2522 
 196   0.0000       0.789906        21.4944 
 197   0.0000       0.791784        21.5455 
 198   0.0000       0.800424        21.7806 
 199   0.0000       0.801977        21.8229 
 200   0.0000       0.811720        22.0880 
 201   0.0000       0.827048        22.5051 
 202   0.0000       0.831381        22.6230 
 203   0.0000       0.839992        22.8573 
 204   0.0000       0.846845        23.0438 
 205   0.0000       0.847715        23.0675 
 206   0.0000       0.868618        23.6363 
 207   0.0000       0.868944        23.6452 
 208   0.0000       0.874223        23.7888 
 209   0.0000       0.877560        23.8796 
 210   0.0000       0.887418        24.1479 
 211   0.0000       0.899233        24.4694 
 212   0.0000       0.903391        24.5825 
 213   0.0000       0.906016        24.6540 
 214   0.0000       0.908754        24.7285 
 215   0.0000       0.917626        24.9699 
 216   0.0000       0.921719        25.0812 
 217   0.0000       0.927066        25.2268 
 218   0.0000       0.930525        25.3209 
 219   0.0000       0.936987        25.4967 
 220   0.0000       0.941493        25.6193 
 221   0.0000       0.943239        25.6668 
 222   0.0000       0.947166        25.7737 
 223   0.0000       0.953482        25.9456 
 224   0.0000       0.953901        25.9570 
 225   0.0000       0.963224        26.2106 
 226   0.0000       0.971790        26.4437 
 227   0.0000       0.979927        26.6652 
 228   0.0000       0.984011        26.7763 
 229   0.0000       0.989817        26.9343 
 230   0.0000       0.994605        27.0646 
 231   0.0000       0.996580        27.1183 
 232   0.0000       1.005733        27.3674 
 233   0.0000       1.009991        27.4832 
 234   0.0000       1.012617        27.5547 
 235   0.0000       1.019320        27.7371 
 236   0.0000       1.025234        27.8980 
 237   0.0000       1.028651        27.9910 
 238   0.0000       1.036642        28.2085 
 239   0.0000       1.038298        28.2535 
 240   0.0000       1.050736        28.5920 
 241   0.0000       1.057102        28.7652 
 242   0.0000       1.060072        28.8460 
 243   0.0000       1.069433        29.1008 
 244   0.0000       1.072640        29.1880 
 245   0.0000       1.077974        29.3332 
 246   0.0000       1.085774        29.5454 
 247   0.0000       1.088857        29.6293 
 248   0.0000       1.094064        29.7710 
 249   0.0000       1.097883        29.8749 
 250   0.0000       1.100790        29.9540 
 251   0.0000       1.107305        30.1313 
 252   0.0000       1.108032        30.1511 
 253   0.0000       1.114949        30.3393 
 254   0.0000       1.119506        30.4633 
 255   0.0000       1.123265        30.5656 
 256   0.0000       1.129220        30.7276 
 257   0.0000       1.134991        30.8847 
 258   0.0000       1.146152        31.1884 
 259   0.0000       1.156048        31.4577 
 260   0.0000       1.159463        31.5506 
 261   0.0000       1.160153        31.5694 
 262   0.0000       1.169671        31.8284 
 263   0.0000       1.178757        32.0756 
 264   0.0000       1.181512        32.1506 
 265   0.0000       1.185520        32.2596 
 266   0.0000       1.188893        32.3514 
 267   0.0000       1.195603        32.5340 
 268   0.0000       1.201680        32.6994 
 269   0.0000       1.205395        32.8005 
 270   0.0000       1.208875        32.8952 
 271   0.0000       1.219442        33.1827 
 272   0.0000       1.220754        33.2184 
 273   0.0000       1.229834        33.4655 
 274   0.0000       1.235484        33.6192 
 275   0.0000       1.238520        33.7019 
 276   0.0000       1.246150        33.9095 
 277   0.0000       1.252587        34.0846 
 278   0.0000       1.258710        34.2512 
 279   0.0000       1.261697        34.3325 
 280   0.0000       1.273634        34.6574 
 281   0.0000       1.277669        34.7671 
 282   0.0000       1.286723        35.0135 
 283   0.0000       1.287905        35.0457 
 284   0.0000       1.291785        35.1513 
 285   0.0000       1.304543        35.4984 
 286   0.0000       1.308716        35.6120 
 287   0.0000       1.318205        35.8702 
 288   0.0000       1.324359        36.0376 
 289   0.0000       1.330209        36.1968 
 290   0.0000       1.341941        36.5161 
 291   0.0000       1.347113        36.6568 
 292   0.0000       1.353603        36.8334 
 293   0.0000       1.365073        37.1455 
 294   0.0000       1.366217        37.1767 
 295   0.0000       1.377598        37.4863 
 296   0.0000       1.390952        37.8497 
 297   0.0000       1.396685        38.0057 
 298   0.0000       1.401516        38.1372 
 299   0.0000       1.410103        38.3708 
 300   0.0000       1.425073        38.7782 
 301   0.0000       1.435885        39.0724 
 302   0.0000       1.441351        39.2212 
 303   0.0000       1.446192        39.3529 
 304   0.0000       1.461429        39.7675 
 305   0.0000       1.466864        39.9154 
 306   0.0000       1.480099        40.2756 
 307   0.0000       1.485728        40.4287 
 308   0.0000       1.487654        40.4811 
 309   0.0000       1.500395        40.8278 
 310   0.0000       1.503794        40.9203 
 311   0.0000       1.517170        41.2843 
 312   0.0000       1.519914        41.3590 
 313   0.0000       1.538009        41.8513 
 314   0.0000       1.547152        42.1001 
 315   0.0000       1.548763        42.1440 
 316   0.0000       1.551714        42.2243 
 317   0.0000       1.558853        42.4186 
 318   0.0000       1.573069        42.8054 
 319   0.0000       1.585400        43.1409 
 320   0.0000       1.587551        43.1995 
 321   0.0000       1.594086        43.3773 
 322   0.0000       1.613954        43.9179 
 323   0.0000       1.625719        44.2381 
 324   0.0000       1.630539        44.3692 
 325   0.0000       1.647765        44.8380 
 326   0.0000       1.653948        45.0062 
 327   0.0000       1.664494        45.2932 
 328   0.0000       1.681562        45.7576 
 329   0.0000       1.686549        45.8933 
 330   0.0000       1.690531        46.0017 
 331   0.0000       1.697872        46.2014 
 332   0.0000       1.699984        46.2589 
 333   0.0000       1.713288        46.6209 
 334   0.0000       1.729223        47.0546 
 335   0.0000       1.744093        47.4592 
 336   0.0000       1.751666        47.6653 
 337   0.0000       1.754048        47.7301 
 338   0.0000       1.762789        47.9679 
 339   0.0000       1.765593        48.0442 
 340   0.0000       1.772761        48.2393 
 341   0.0000       1.781995        48.4906 
 342   0.0000       1.790423        48.7199 
 343   0.0000       1.796913        48.8965 
 344   0.0000       1.807073        49.1730 
 345   0.0000       1.812691        49.3258 
 346   0.0000       1.821768        49.5728 
 347   0.0000       1.839604        50.0582 
 348   0.0000       1.845716        50.2245 
 349   0.0000       1.852716        50.4150 
 350   0.0000       1.858917        50.5837 
 351   0.0000       1.875345        51.0307 
 352   0.0000       1.882045        51.2130 
 353   0.0000       1.890822        51.4519 
 354   0.0000       1.895476        51.5785 
 355   0.0000       1.904795        51.8321 
 356   0.0000       1.915415        52.1211 
 357   0.0000       1.920990        52.2728 
 358   0.0000       1.933506        52.6134 
 359   0.0000       1.938662        52.7537 
 360   0.0000       1.946841        52.9762 
 361   0.0000       1.956213        53.2313 
 362   0.0000       1.960368        53.3443 
 363   0.0000       1.970877        53.6303 
 364   0.0000       1.978434        53.8359 
 365   0.0000       1.997291        54.3490 
 366   0.0000       2.000903        54.4473 
 367   0.0000       2.014255        54.8107 
 368   0.0000       2.020630        54.9841 
 369   0.0000       2.027591        55.1736 
 370   0.0000       2.041539        55.5531 
 371   0.0000       2.050160        55.7877 
 372   0.0000       2.064288        56.1721 
 373   0.0000       2.069239        56.3069 
 374   0.0000       2.075150        56.4677 
 375   0.0000       2.083451        56.6936 
 376   0.0000       2.088436        56.8292 
 377   0.0000       2.101104        57.1739 
 378   0.0000       2.110887        57.4401 
 379   0.0000       2.124522        57.8112 
 380   0.0000       2.126694        57.8703 
 381   0.0000       2.140654        58.2502 
 382   0.0000       2.147023        58.4235 
 383   0.0000       2.164615        58.9022 
 384   0.0000       2.174648        59.1752 
 385   0.0000       2.189036        59.5667 
 386   0.0000       2.202075        59.9215 
 387   0.0000       2.205669        60.0193 
 388   0.0000       2.214543        60.2608 
 389   0.0000       2.221601        60.4528 
 390   0.0000       2.252497        61.2936 
 391   0.0000       2.262624        61.5691 
 392   0.0000       2.271547        61.8119 
 393   0.0000       2.294319        62.4316 
 394   0.0000       2.298187        62.5369 
 395   0.0000       2.309974        62.8576 
 396   0.0000       2.319805        63.1251 
 397   0.0000       2.322027        63.1856 
 398   0.0000       2.348800        63.9141 
 399   0.0000       2.352508        64.0150 
 400   0.0000       2.363667        64.3187 
 401   0.0000       2.365798        64.3766 
 402   0.0000       2.372781        64.5666 
 403   0.0000       2.388789        65.0022 
 404   0.0000       2.403579        65.4047 
 405   0.0000       2.417850        65.7931 
 406   0.0000       2.429903        66.1210 
 407   0.0000       2.440961        66.4219 
 408   0.0000       2.459437        66.9247 
 409   0.0000       2.465511        67.0900 
 410   0.0000       2.475307        67.3565 
 411   0.0000       2.480646        67.5018 
 412   0.0000       2.491264        67.7907 
 413   0.0000       2.504416        68.1486 
 414   0.0000       2.509246        68.2800 
 415   0.0000       2.524469        68.6943 
 416   0.0000       2.529431        68.8293 
 417   0.0000       2.536882        69.0321 
 418   0.0000       2.560304        69.6694 
 419   0.0000       2.579554        70.1932 
 420   0.0000       2.583656        70.3049 
 421   0.0000       2.591669        70.5229 
 422   0.0000       2.599995        70.7495 
 423   0.0000       2.603474        70.8441 
 424   0.0000       2.611370        71.0590 
 425   0.0000       2.615175        71.1625 
 426   0.0000       2.631432        71.6049 
 427   0.0000       2.636115        71.7323 
 428   0.0000       2.638143        71.7875 
 429   0.0000       2.659027        72.3558 
 430   0.0000       2.662989        72.4636 
 431   0.0000       2.681477        72.9667 
 432   0.0000       2.687899        73.1415 
 433   0.0000       2.697370        73.3992 
 434   0.0000       2.712175        73.8020 
 435   0.0000       2.715212        73.8847 
 436   0.0000       2.732713        74.3609 
 437   0.0000       2.743338        74.6500 
 438   0.0000       2.744735        74.6880 
 439   0.0000       2.757938        75.0473 
 440   0.0000       2.789066        75.8944 
 441   0.0000       2.797866        76.1338 
 442   0.0000       2.815052        76.6014 
 443   0.0000       2.829051        76.9824 
 444   0.0000       2.835892        77.1685 
 445   0.0000       2.845026        77.4171 
 446   0.0000       2.854352        77.6709 
 447   0.0000       2.856052        77.7171 
 448   0.0000       2.871724        78.1436 
 449   0.0000       2.883066        78.4522 
 450   0.0000       2.888316        78.5951 
 451   0.0000       2.900733        78.9330 
 452   0.0000       2.918484        79.4160 
 453   0.0000       2.933472        79.8238 
 454   0.0000       2.944238        80.1168 
 455   0.0000       2.958414        80.5025 
 456   0.0000       2.984089        81.2012 
 457   0.0000       2.997944        81.5782 
 458   0.0000       3.004165        81.7475 
 459   0.0000       3.011532        81.9480 
 460   0.0000       3.026439        82.3536 
 461   0.0000       3.032304        82.5132 
 462   0.0000       3.056625        83.1750 
 463   0.0000       3.067422        83.4688 
 464   0.0000       3.073653        83.6383 
 465   0.0000       3.085899        83.9716 
 466   0.0000       3.097429        84.2853 
 467   0.0000       3.112624        84.6988 
 468   0.0000       3.124090        85.0108 
 469   0.0000       3.126954        85.0887 
 470   0.0000       3.143478        85.5384 
 471   0.0000       3.156777        85.9003 
 472   0.0000       3.158360        85.9433 
 473   0.0000       3.171672        86.3056 
 474   0.0000       3.179647        86.5226 
 475   0.0000       3.180353        86.5418 
 476   0.0000       3.183788        86.6353 
 477   0.0000       3.196221        86.9736 
 478   0.0000       3.201109        87.1066 
 479   0.0000       3.213814        87.4523 
 480   0.0000       3.229369        87.8756 
 481   0.0000       3.236033        88.0569 
 482   0.0000       3.244669        88.2919 
 483   0.0000       3.247946        88.3811 
 484   0.0000       3.257634        88.6447 
 485   0.0000       3.262928        88.7888 
 486   0.0000       3.268630        88.9439 
 487   0.0000       3.284387        89.3727 
 488   0.0000       3.292282        89.5875 
 489   0.0000       3.313204        90.1569 
 490   0.0000       3.323162        90.4278 
 491   0.0000       3.336323        90.7860 
 492   0.0000       3.347770        91.0975 
 493   0.0000       3.352113        91.2156 
 494   0.0000       3.354521        91.2812 
 495   0.0000       3.361278        91.4650 
 496   0.0000       3.379945        91.9730 
 497   0.0000       3.383143        92.0600 
 498   0.0000       3.395088        92.3850 
 499   0.0000       3.403596        92.6166 
 500   0.0000       3.409746        92.7839 
 501   0.0000       3.418347        93.0180 
 502   0.0000       3.424192        93.1770 
 503   0.0000       3.440689        93.6259 
 504   0.0000       3.447009        93.7979 
 505   0.0000       3.461461        94.1911 
 506   0.0000       3.469060        94.3979 
 507   0.0000       3.482501        94.7637 
 508   0.0000       3.495453        95.1161 
 509   0.0000       3.504243        95.3553 
 510   0.0000       3.517049        95.7038 
 511   0.0000       3.522194        95.8438 
 512   0.0000       3.542300        96.3909 
 513   0.0000       3.551235        96.6340 
 514   0.0000       3.568489        97.1035 
 515   0.0000       3.582209        97.4769 
 516   0.0000       3.594590        97.8138 
 517   0.0000       3.607589        98.1675 
 518   0.0000       3.641449        99.0889 
 519   0.0000       3.643577        99.1468 
 520   0.0000       3.645008        99.1857 
 521   0.0000       3.657443        99.5241 
 522   0.0000       3.672207        99.9258 
 523   0.0000       3.682614       100.2090 
 524   0.0000       3.700825       100.7046 
 525   0.0000       3.713371       101.0460 
 526   0.0000       3.727424       101.4284 
 527   0.0000       3.748695       102.0072 
 528   0.0000       3.779949       102.8576 
 529   0.0000       3.793544       103.2276 
 530   0.0000       3.809319       103.6568 
 531   0.0000       3.820121       103.9508 
 532   0.0000       3.837064       104.4118 
 533   0.0000       3.840875       104.5155 
 534   0.0000       3.857943       104.9800 
 535   0.0000       3.874180       105.4218 
 536   0.0000       3.898367       106.0800 
 537   0.0000       3.903196       106.2114 
 538   0.0000       3.904942       106.2589 
 539   0.0000       3.919112       106.6445 
 540   0.0000       3.932231       107.0014 
 541   0.0000       3.946421       107.3876 
 542   0.0000       3.950556       107.5001 
 543   0.0000       3.964565       107.8813 
 544   0.0000       3.980187       108.3064 
 545   0.0000       3.999237       108.8248 
 546   0.0000       4.010844       109.1406 
 547   0.0000       4.046392       110.1079 
 548   0.0000       4.049206       110.1845 
 549   0.0000       4.075630       110.9035 
 550   0.0000       4.077561       110.9561 
 551   0.0000       4.099617       111.5563 
 552   0.0000       4.119784       112.1050 
 553   0.0000       4.161290       113.2344 
 554   0.0000       4.170152       113.4756 
 555   0.0000       4.173517       113.5672 
 556   0.0000       4.184497       113.8660 
 557   0.0000       4.194380       114.1349 
 558   0.0000       4.208308       114.5139 
 559   0.0000       4.215376       114.7062 
 560   0.0000       4.232845       115.1816 
 561   0.0000       4.251027       115.6763 
 562   0.0000       4.259758       115.9139 
 563   0.0000       4.297846       116.9503 
 564   0.0000       4.325552       117.7043 
 565   0.0000       4.344154       118.2105 
 566   0.0000       4.349829       118.3649 
 567   0.0000       4.358229       118.5934 
 568   0.0000       4.369535       118.9011 
 569   0.0000       4.376409       119.0882 
 570   0.0000       4.384766       119.3155 
 571   0.0000       4.391036       119.4862 
 572   0.0000       4.411435       120.0412 
 573   0.0000       4.427021       120.4654 
 574   0.0000       4.436392       120.7204 
 575   0.0000       4.448721       121.0558 
 576   0.0000       4.472459       121.7018 
 577   0.0000       4.484966       122.0421 
 578   0.0000       4.493339       122.2700 
 579   0.0000       4.527506       123.1997 
 580   0.0000       4.542198       123.5995 
 581   0.0000       4.554764       123.9414 
 582   0.0000       4.596211       125.0693 
 583   0.0000       4.639472       126.2464 
 584   0.0000       4.650984       126.5597 
 585   0.0000       4.667686       127.0142 
 586   0.0000       4.683606       127.4474 
 587   0.0000       4.687986       127.5666 
 588   0.0000       4.696159       127.7890 
 589   0.0000       4.696853       127.8079 
 590   0.0000       4.757594       129.4607 
 591   0.0000       4.786035       130.2346 
 592   0.0000       4.822294       131.2213 
 593   0.0000       4.866136       132.4143 
 594   0.0000       4.874225       132.6344 
 595   0.0000       4.884704       132.9196 
 596   0.0000       4.891673       133.1092 
 597   0.0000       4.898622       133.2983 
 598   0.0000       4.921800       133.9290 
 599   0.0000       4.931108       134.1823 
 600   0.0000       4.967461       135.1715 
 601   0.0000       5.003046       136.1398 
 602   0.0000       5.014947       136.4637 
 603   0.0000       5.034055       136.9836 
 604   0.0000       5.057729       137.6278 
 605   0.0000       5.075611       138.1144 
 606   0.0000       5.095514       138.6560 
 607   0.0000       5.104992       138.9139 
 608   0.0000       5.141106       139.8966 
 609   0.0000       5.188410       141.1838 
 610   0.0000       5.195676       141.3815 
 611   0.0000       5.203945       141.6066 
 612   0.0000       5.214946       141.9059 
 613   0.0000       5.228137       142.2648 
 614   0.0000       5.238665       142.5513 
 615   0.0000       5.286133       143.8430 
 616   0.0000       5.326984       144.9546 
 617   0.0000       5.393790       146.7725 
 618   0.0000       5.421150       147.5170 
 619   0.0000       5.422969       147.5665 
 620   0.0000       5.435547       147.9088 
 621   0.0000       5.465828       148.7327 
 622   0.0000       5.481591       149.1617 
 623   0.0000       5.559431       151.2798 
 624   0.0000       5.575356       151.7132 
 625   0.0000       5.610441       152.6679 
 626   0.0000       5.654050       153.8545 
 627   0.0000       5.716649       155.5579 
 628   0.0000       5.748099       156.4137 
 629   0.0000       5.766106       156.9037 
 630   0.0000       5.871029       159.7588 
 631   0.0000       5.897320       160.4742 
 632   0.0000       6.002173       163.3274 
 633   0.0000       6.044361       164.4754 
 634   0.0000       6.094432       165.8379 
 635   0.0000       6.130408       166.8169 
 636   0.0000       6.183263       168.2551 
 637   0.0000       6.222943       169.3349 
 638   0.0000       6.245357       169.9448 
 639   0.0000       6.301452       171.4712 
 640   0.0000       6.483593       176.4275 
 641   0.0000       6.495321       176.7467 
 642   0.0000       6.543069       178.0459 
 643   0.0000       6.606725       179.7781 
 644   0.0000       6.683750       181.8741 
 645   0.0000       6.726007       183.0240 
 646   0.0000       6.733746       183.2345 
 647   0.0000       6.774745       184.3502 
 648   0.0000       6.855805       186.5559 
 649   0.0000       6.891573       187.5292 
 650   0.0000       6.917150       188.2252 
 651   0.0000       6.938885       188.8167 
 652   0.0000       6.944977       188.9824 
 653   0.0000       6.954001       189.2280 
 654   0.0000       6.975825       189.8218 
 655   0.0000       7.019096       190.9993 
 656   0.0000       7.031113       191.3263 
 657   0.0000       7.049330       191.8220 
 658   0.0000       7.102245       193.2619 
 659   0.0000       7.137063       194.2094 
 660   0.0000       7.250337       197.2917 
 661   0.0000       7.272315       197.8898 
 662   0.0000       7.323030       199.2698 
 663   0.0000       7.328278       199.4126 
 664   0.0000       7.531226       204.9351 
 665   0.0000       7.609933       207.0768 
 666   0.0000       7.630734       207.6428 
 667   0.0000       7.685375       209.1297 
 668   0.0000       7.739703       210.6080 
 669   0.0000       7.776413       211.6070 
 670   0.0000       8.149675       221.7639 
 671   0.0000       8.279902       225.3076 
 672   0.0000       8.553699       232.7580 
 673   0.0000      12.598632       342.8262 
 674   0.0000      12.876622       350.3907 
 675   0.0000      13.847877       376.8199 
 676   0.0000      14.571951       396.5229 
 677   0.0000      15.577125       423.8751 
 678   0.0000      15.784246       429.5112 
 679   0.0000      17.360254       472.3965 
 680   0.0000      18.602142       506.1900 
 681   0.0000      18.926900       515.0271 
 682   0.0000      19.620507       533.9011 

                    ********************************
                    * MULLIKEN POPULATION ANALYSIS *
                    ********************************

-----------------------
MULLIKEN ATOMIC CHARGES
-----------------------
   0 C :   -0.170050
   1 C :    0.677265
   2 Cl:   -0.454843
   3 C :   -0.965915
   4 H :    0.583687
   5 C :    0.862237
   6 Cl:   -0.482670
   7 C :   -0.916626
   8 H :    0.536505
   9 C :    0.476887
  10 Cl:   -0.381297
  11 S :    2.118195
  12 O :   -0.950848
  13 O :   -1.007881
  14 N :   -1.076046
  15 H :    0.151398
Sum of atomic charges:   -1.0000000

--------------------------------
MULLIKEN REDUCED ORBITAL CHARGES
--------------------------------
  0 C s       :     3.478944  s :     3.478944
      pz      :     0.649910  p :     2.349682
      px      :     0.774555
      py      :     0.925217
      dz2     :     0.244303  d :     0.398614
      dxz     :     0.105308
      dyz     :     0.013481
      dx2y2   :     0.058872
      dxy     :    -0.023350
      f0      :     0.000457  f :    -0.057191
      f+1     :    -0.047758
      f-1     :    -0.000531
      f+2     :    -0.003445
      f-2     :    -0.002687
      f+3     :    -0.002130
      f-3     :    -0.001096
  1 C s       :     3.022405  s :     3.022405
      pz      :     0.698315  p :     2.315071
      px      :     0.612644
      py      :     1.004113
      dz2     :    -0.040238  d :     0.012646
      dxz     :     0.093306
      dyz     :    -0.005771
      dx2y2   :    -0.028046
      dxy     :    -0.006605
      f0      :    -0.002864  f :    -0.027387
      f+1     :    -0.027625
      f-1     :    -0.000559
      f+2     :     0.002710
      f-2     :     0.000468
      f+3     :    -0.003263
      f-3     :     0.003745
  2 Cls       :     6.076122  s :     6.076122
      pz      :     3.917948  p :    11.312889
      px      :     3.443014
      py      :     3.951927
      dz2     :     0.006620  d :     0.058987
      dxz     :     0.018533
      dyz     :     0.006403
      dx2y2   :     0.013088
      dxy     :     0.014343
      f0      :     0.000770  f :     0.006845
      f+1     :     0.000831
      f-1     :     0.000137
      f+2     :     0.001419
      f-2     :     0.000946
      f+3     :     0.001300
      f-3     :     0.001443
  3 C s       :     4.059633  s :     4.059633
      pz      :     0.618074  p :     2.647740
      px      :     1.031569
      py      :     0.998096
      dz2     :     0.078344  d :     0.281134
      dxz     :     0.130587
      dyz     :     0.014341
      dx2y2   :     0.044076
      dxy     :     0.013786
      f0      :    -0.000744  f :    -0.022593
      f+1     :    -0.026240
      f-1     :     0.000021
      f+2     :     0.003513
      f-2     :    -0.000234
      f+3     :     0.000048
      f-3     :     0.001044
  4 H s       :     0.456068  s :     0.456068
      pz      :    -0.027958  p :    -0.040155
      px      :    -0.016486
      py      :     0.004289
      dz2     :    -0.000908  d :     0.000400
      dxz     :    -0.000501
      dyz     :     0.000797
      dx2y2   :    -0.001937
      dxy     :     0.002949
  5 C s       :     2.564406  s :     2.564406
      pz      :     0.422183  p :     2.761578
      px      :     1.287598
      py      :     1.051798
      dz2     :     0.000543  d :    -0.159378
      dxz     :    -0.167298
      dyz     :    -0.018991
      dx2y2   :     0.003022
      dxy     :     0.023346
      f0      :     0.001330  f :    -0.028844
      f+1     :    -0.030526
      f-1     :     0.003406
      f+2     :    -0.002105
      f-2     :    -0.003222
      f+3     :     0.000706
      f-3     :     0.001568
  6 Cls       :     6.086576  s :     6.086576
      pz      :     3.313457  p :    11.334699
      px      :     4.057079
      py      :     3.964163
      dz2     :     0.027561  d :     0.054635
      dxz     :     0.004666
      dyz     :     0.020380
      dx2y2   :     0.001113
      dxy     :     0.000916
      f0      :     0.002949  f :     0.006760
      f+1     :     0.000926
      f-1     :     0.002409
      f+2     :     0.000326
      f-2     :     0.000091
      f+3     :     0.000038
      f-3     :     0.000021
  7 C s       :     4.008932  s :     4.008932
      pz      :     0.682798  p :     2.653413
      px      :     0.995585
      py      :     0.975031
      dz2     :     0.098039  d :     0.275061
      dxz     :     0.106627
      dyz     :     0.014701
      dx2y2   :     0.048537
      dxy     :     0.007157
      f0      :    -0.000155  f :    -0.020781
      f+1     :    -0.025739
      f-1     :     0.000342
      f+2     :     0.003265
      f-2     :    -0.000065
      f+3     :    -0.000029
      f-3     :     0.001601
  8 H s       :     0.499328  s :     0.499328
      pz      :    -0.031101  p :    -0.037494
      px      :    -0.009946
      py      :     0.003553
      dz2     :    -0.001058  d :     0.001662
      dxz     :     0.000828
      dyz     :     0.000665
      dx2y2   :    -0.001708
      dxy     :     0.002935
  9 C s       :     2.888744  s :     2.888744
      pz      :     0.848436  p :     2.596167
      px      :     0.650328
      py      :     1.097402
      dz2     :     0.084453  d :     0.071822
      dxz     :     0.048871
      dyz     :    -0.012845
      dx2y2   :    -0.040190
      dxy     :    -0.008468
      f0      :    -0.002446  f :    -0.033620
      f+1     :    -0.033067
      f-1     :     0.000011
      f+2     :     0.001477
      f-2     :     0.001098
      f+3     :    -0.004771
      f-3     :     0.004078
 10 Cls       :     6.074898  s :     6.074898
      pz      :     3.907404  p :    11.242469
      px      :     3.373862
      py      :     3.961203
      dz2     :     0.008869  d :     0.057416
      dxz     :     0.016119
      dyz     :     0.004818
      dx2y2   :     0.012402
      dxy     :     0.015208
      f0      :     0.000819  f :     0.006514
      f+1     :     0.000746
      f-1     :     0.000123
      f+2     :     0.001202
      f-2     :     0.000859
      f+3     :     0.001285
      f-3     :     0.001479
 11 S s       :     4.960897  s :     4.960897
      pz      :     2.764331  p :     7.991757
      px      :     2.621455
      py      :     2.605971
      dz2     :     0.267734  d :     0.843749
      dxz     :     0.125402
      dyz     :     0.144945
      dx2y2   :     0.133799
      dxy     :     0.171868
      f0      :     0.005920  f :     0.085402
      f+1     :    -0.000121
      f-1     :     0.004107
      f+2     :     0.009923
      f-2     :     0.012445
      f+3     :     0.021553
      f-3     :     0.031576
 12 O s       :     3.942404  s :     3.942404
      pz      :     1.747413  p :     4.939322
      px      :     1.361184
      py      :     1.830725
      dz2     :     0.009700  d :     0.061879
      dxz     :     0.017581
      dyz     :     0.003272
      dx2y2   :     0.014238
      dxy     :     0.017088
      f0      :     0.000450  f :     0.007242
      f+1     :     0.001958
      f-1     :     0.000114
      f+2     :     0.001069
      f-2     :     0.000652
      f+3     :     0.000949
      f-3     :     0.002050
 13 O s       :     3.955799  s :     3.955799
      pz      :     1.789688  p :     4.984083
      px      :     1.625937
      py      :     1.568458
      dz2     :     0.007616  d :     0.061000
      dxz     :     0.009809
      dyz     :     0.011963
      dx2y2   :     0.018473
      dxy     :     0.013138
      f0      :     0.000560  f :     0.006998
      f+1     :     0.000789
      f-1     :     0.000911
      f+2     :     0.000483
      f-2     :     0.001204
      f+3     :     0.001222
      f-3     :     0.001829
 14 N s       :     3.943127  s :     3.943127
      pz      :     1.637550  p :     4.035182
      px      :     1.211196
      py      :     1.186437
      dz2     :     0.007193  d :     0.091796
[...]
      f0      :     0.059669  f :     0.467296
      f+1     :     0.156040
      f-1     :     0.041336
      f+2     :     0.055269
      f-2     :     0.070295
      f+3     :     0.046094
      f-3     :     0.038593
  1 C s       :     2.525684  s :     2.525684
      pz      :     0.897904  p :     2.401887
      px      :     0.828588
      py      :     0.675394
      dz2     :     0.276181  d :     1.215467
      dxz     :     0.371206
      dyz     :     0.158693
      dx2y2   :     0.201387
      dxy     :     0.208000
      f0      :     0.075012  f :     0.666776
      f+1     :     0.231866
      f-1     :     0.049842
      f+2     :     0.079602
      f-2     :     0.080636
      f+3     :     0.069758
      f-3     :     0.080060
  2 Cls       :     5.312041  s :     5.312041
      pz      :     3.502580  p :    10.335948
      px      :     3.252158
      py      :     3.581210
      dz2     :     0.039971  d :     0.270454
      dxz     :     0.085325
      dyz     :     0.025614
      dx2y2   :     0.056481
      dxy     :     0.063063
      f0      :     0.005429  f :     0.075659
      f+1     :     0.019870
      f-1     :     0.001826
      f+2     :     0.012945
      f-2     :     0.010612
      f+3     :     0.012148
      f-3     :     0.012829
  3 C s       :     2.502590  s :     2.502590
      pz      :     0.866793  p :     2.353143
      px      :     0.853981
      py      :     0.632369
      dz2     :     0.207342  d :     0.793639
      dxz     :     0.274944
      dyz     :     0.129097
      dx2y2   :     0.104192
      dxy     :     0.078064
      f0      :     0.061830  f :     0.375347
      f+1     :     0.122822
      f-1     :     0.052235
      f+2     :     0.039257
      f-2     :     0.038910
      f+3     :     0.030549
      f-3     :     0.029743
  4 H s       :     0.673347  s :     0.673347
      pz      :     0.107585  p :     0.325447
      px      :     0.133739
      py      :     0.084123
      dz2     :     0.052868  d :     0.233660
      dxz     :     0.063522
      dyz     :     0.019234
      dx2y2   :     0.047960
      dxy     :     0.050074
  5 C s       :     2.524019  s :     2.524019
      pz      :     0.772784  p :     2.407080
      px      :     0.945701
      py      :     0.688596
      dz2     :     0.372103  d :     1.217982
      dxz     :     0.317905
      dyz     :     0.213402
      dx2y2   :     0.159072
      dxy     :     0.155499
      f0      :     0.103903  f :     0.657088
      f+1     :     0.246972
      f-1     :     0.106100
      f+2     :     0.050291
      f-2     :     0.068850
      f+3     :     0.049578
      f-3     :     0.031394
  6 Cls       :     5.342489  s :     5.342489
      pz      :     3.210416  p :    10.405181
      px      :     3.587447
      py      :     3.607318
      dz2     :     0.084038  d :     0.242905
      dxz     :     0.071517
      dyz     :     0.078807
      dx2y2   :     0.004830
      dxy     :     0.003713
      f0      :     0.021874  f :     0.073076
      f+1     :     0.024472
      f-1     :     0.021773
      f+2     :     0.002242
      f-2     :     0.002507
      f+3     :     0.000123
      f-3     :     0.000084
  7 C s       :     2.502899  s :     2.502899
      pz      :     0.865777  p :     2.352140
      px      :     0.856870
      py      :     0.629493
      dz2     :     0.208211  d :     0.798978
      dxz     :     0.279835
      dyz     :     0.127637
      dx2y2   :     0.102885
      dxy     :     0.080409
      f0      :     0.062311  f :     0.376905
      f+1     :     0.124969
      f-1     :     0.050238
      f+2     :     0.041554
      f-2     :     0.037750
      f+3     :     0.028502
      f-3     :     0.031580
  8 H s       :     0.672730  s :     0.672730
      pz      :     0.109177  p :     0.327855
      px      :     0.134102
      py      :     0.084576
      dz2     :     0.053838  d :     0.235724
      dxz     :     0.063741
      dyz     :     0.019555
      dx2y2   :     0.049278
      dxy     :     0.049313
  9 C s       :     2.528419  s :     2.528419
      pz      :     0.896296  p :     2.408025
      px      :     0.834187
      py      :     0.677542
      dz2     :     0.274080  d :     1.208392
      dxz     :     0.368703
      dyz     :     0.147462
      dx2y2   :     0.204948
      dxy     :     0.213199
      f0      :     0.075173  f :     0.660078
      f+1     :     0.228465
      f-1     :     0.048218
      f+2     :     0.078072
      f-2     :     0.077794
      f+3     :     0.065607
      f-3     :     0.086749
 10 Cls       :     5.324515  s :     5.324515
      pz      :     3.524769  p :    10.347731
      px      :     3.225700
      py      :     3.597262
      dz2     :     0.045790  d :     0.274967
      dxz     :     0.091954
      dyz     :     0.016373
      dx2y2   :     0.058114
      dxy     :     0.062736
      f0      :     0.005932  f :     0.078435
      f+1     :     0.022135
      f-1     :     0.000929
      f+2     :     0.014766
      f-2     :     0.008575
      f+3     :     0.011602
      f-3     :     0.014495
 11 S s       :     4.509090  s :     4.509090
      pz      :     2.638440  p :     8.117746
      px      :     2.725992
      py      :     2.753315
      dz2     :     0.484089  d :     2.327621
      dxz     :     0.379874
      dyz     :     0.369973
      dx2y2   :     0.563116
      dxy     :     0.530569
      f0      :     0.137461  f :     1.232725
      f+1     :     0.154803
      f-1     :     0.111259
      f+2     :     0.144987
      f-2     :     0.135221
      f+3     :     0.217921
      f-3     :     0.331073
 12 O s       :     3.331437  s :     3.331437
      pz      :     1.472356  p :     4.394443
      px      :     1.419439
      py      :     1.502648
      dz2     :     0.041756  d :     0.246690
      dxz     :     0.071006
      dyz     :     0.010501
      dx2y2   :     0.064741
      dxy     :     0.058686
      f0      :     0.006205  f :     0.072219
      f+1     :     0.015622
      f-1     :     0.001497
      f+2     :     0.013325
      f-2     :     0.005049
      f+3     :     0.015514
      f-3     :     0.015007
 13 O s       :     3.334900  s :     3.334900
      pz      :     1.479642  p :     4.401777
      px      :     1.470505
      py      :     1.451629
      dz2     :     0.037027  d :     0.230621
      dxz     :     0.036261
      dyz     :     0.034070
      dx2y2   :     0.057919
      dxy     :     0.065343
      f0      :     0.005707  f :     0.068965
      f+1     :     0.007435
      f-1     :     0.008471
      f+2     :     0.003842
      f-2     :     0.012363
      f+3     :     0.015662
      f-3     :     0.015487
 14 N s       :     2.917252  s :     2.917252
      pz      :     1.152250  p :     3.365968
      px      :     1.098759
      py      :     1.114959
      dz2     :     0.045047  d :     0.329171
      dxz     :     0.018102
      dyz     :     0.061120
      dx2y2   :     0.121394
      dxy     :     0.083508
      f0      :     0.008449  f :     0.114325
      f+1     :     0.007515
      f-1     :     0.018773
      f+2     :     0.013316
      f-2     :     0.008734
      f+3     :     0.029131
      f-3     :     0.028407
 15 H s       :     0.677260  s :     0.677260
      pz      :     0.181139  p :     0.585790
      px      :     0.245765
      py      :     0.158885
      dz2     :     0.034435  d :     0.376587
      dxz     :     0.121213
      dyz     :     0.009532
      dx2y2   :     0.082071
      dxy     :     0.129335


                      *****************************
                      * MAYER POPULATION ANALYSIS *
                      *****************************

  NA   - Mulliken gross atomic population
  ZA   - Total nuclear charge
  QA   - Mulliken gross atomic charge
  VA   - Mayer's total valence
  BVA  - Mayer's bonded valence
  FA   - Mayer's free valence

  ATOM       NA         ZA         QA         VA         BVA        FA
  0 C      6.1700     6.0000    -0.1700     5.1420     5.1420     0.0000
  1 C      5.3227     6.0000     0.6773     2.6095     2.6095    -0.0000
  2 Cl    17.4548    17.0000    -0.4548     0.5939     0.5939    -0.0000
  3 C      6.9659     6.0000    -0.9659     2.7604     2.7604     0.0000
  4 H      0.4163     1.0000     0.5837     0.4832     0.4832    -0.0000
  5 C      5.1378     6.0000     0.8622     2.3970     2.3970    -0.0000
  6 Cl    17.4827    17.0000    -0.4827     0.6104     0.6104    -0.0000
  7 C      6.9166     6.0000    -0.9166     3.1767     3.1767     0.0000
  8 H      0.4635     1.0000     0.5365     0.5608     0.5608    -0.0000
  9 C      5.5231     6.0000     0.4769     2.8598     2.8598    -0.0000
 10 Cl    17.3813    17.0000    -0.3813     0.6377     0.6377     0.0000
 11 S     13.8818    16.0000     2.1182     4.6323     4.6323    -0.0000
 12 O      8.9508     8.0000    -0.9508     1.3374     1.3374    -0.0000
 13 O      9.0079     8.0000    -1.0079     1.4302     1.4302    -0.0000
 14 N      8.0760     7.0000    -1.0760     2.5379     2.5379    -0.0000
 15 H      0.8486     1.0000     0.1514     1.0442     1.0442     0.0000

  Mayer bond orders larger than 0.100000
B(  0-C ,  1-C ) :   1.6021 B(  0-C ,  2-Cl) :   0.3170 B(  0-C ,  3-C ) :   0.2304 
B(  0-C ,  7-C ) :   0.2748 B(  0-C ,  9-C ) :   1.3411 B(  0-C , 10-Cl) :   0.1287 
B(  0-C , 11-S ) :   0.6668 B(  0-C , 13-O ) :   0.1509 B(  0-C , 14-N ) :   0.2454 
B(  1-C ,  2-Cl) :   0.3737 B(  1-C ,  3-C ) :   0.8885 B(  1-C ,  7-C ) :  -0.1703 
B(  1-C , 11-S ) :   0.1586 B(  1-C , 14-N ) :  -0.1703 B(  3-C ,  4-H ) :   0.5590 
B(  3-C ,  5-C ) :   0.8258 B(  3-C ,  7-C ) :   0.4134 B(  3-C ,  9-C ) :  -0.2262 
B(  5-C ,  6-Cl) :   0.6697 B(  5-C ,  7-C ) :   0.9224 B(  5-C ,  9-C ) :   0.1081 
B(  6-Cl,  7-C ) :   0.1624 B(  7-C ,  8-H ) :   0.6730 B(  7-C ,  9-C ) :   0.8678 
B(  9-C , 10-Cl) :   0.6305 B(  9-C , 12-O ) :   0.1116 B( 11-S , 12-O ) :   1.2115 
B( 11-S , 13-O ) :   1.1849 B( 11-S , 14-N ) :   1.3231 B( 13-O , 14-N ) :   0.1045 
B( 14-N , 15-H ) :   0.9076 

-------
TIMINGS
-------

Total SCF time: 0 days 0 hours 2 min 22 sec 

Total time                  ....     142.708 sec
Sum of individual times     ....     140.899 sec  ( 98.7%)

Fock matrix formation       ....     136.274 sec  ( 95.5%)
  Split-RI-J                ....       8.617 sec  (  6.3% of F)
  Chain of spheres X        ....     110.891 sec  ( 81.4% of F)
  XC integration            ....      16.143 sec  ( 11.8% of F)
    Basis function eval.    ....       2.751 sec  ( 17.0% of XC)
    Density eval.           ....       5.844 sec  ( 36.2% of XC)
    XC-Functional eval.     ....       0.196 sec  (  1.2% of XC)
    XC-Potential eval.      ....       6.147 sec  ( 38.1% of XC)
Diagonalization             ....       0.790 sec  (  0.6%)
Density matrix formation    ....       0.087 sec  (  0.1%)
Population analysis         ....       0.092 sec  (  0.1%)
Initial guess               ....       0.787 sec  (  0.6%)
Orbital Transformation      ....       0.000 sec  (  0.0%)
Orbital Orthonormalization  ....       0.000 sec  (  0.0%)
DIIS solution               ....       0.387 sec  (  0.3%)
SOSCF solution              ....       0.788 sec  (  0.6%)
Grid generation             ....       1.694 sec  (  1.2%)

Maximum memory used throughout the entire SCF-calculation: 157.6 MB


           ************************************************************
           *        Program running with 8 parallel MPI-processes     *
           *              working on a common directory               *
           ************************************************************

------------------------------------------------------------------------------
                                ORCA  MP2 
------------------------------------------------------------------------------

Freezing NCore=58 chemical core electrons

   <<< Use J-auxbasis for calculation of Separable RI-J derivative contributions (Dim=678) >>> 


-------------
RI-MP2 ENERGY
-------------
Dimension of the basis                    ...  683
Memory devoted to MP2                     ... 5000 MB   
Data format for buffers                   ... DOUBLE
Compression type for matrix containers    ... UNCOMPRESSED
Scaling for aa/bb pairs                   ...   2.500e-01
Scaling for ab pairs                      ...   5.300e-01
Overall scaling of the MP2 energy         ...   1.000e+00
Calculating two index integrals           ... done (    0.029 sec)
Cholesky decomposition of V**-1           ... done (    0.225 sec)

-----------------
RI-TRANSFORMATION (AUX index driven)
-----------------

Dimension of the orbital-basis         ... 683
Dimension of the aux-basis             ... 1680
Transformation of internal/external MOs...   29-  64 to   65- 682
Number Format for Storage              ... Double (8 Byte)
Integral mode                          ... Direct

First Phase: integral generation and transformation of MO indices
  Aux angular momentum 0               ... done (    0.254 sec)
  Aux angular momentum 1               ... done (    0.415 sec)
  Aux angular momentum 2               ... done (    0.595 sec)
  Aux angular momentum 3               ... done (    0.618 sec)
  Aux angular momentum 4               ... done (    0.374 sec)
Closing buffer VIA ( 0.28 GB; CompressionRatio= 1.00)
  Phase 1 completed in     2.764 sec
Second Phase: sorting and transformation of aux index

IA-Transformation
Memory available                       ... 4919 MB 
Max. # MO pairs treated in a batch     ... 5    
# of internal orbitals                 ... 36
# batches for internal orbitals        ... 1
Closing buffer IAV ( 0.28 GB; CompressionRatio= 1.00)
(ia|v) transformation done in     0.423 sec

  Phase 2 completed in     0.531 sec
RI-Integral transformation completed in     3.298 sec
Opening buffers                              ... done

Starting loop over batches of integrals:

Operator 0  - window                       ... ( 29- 64)x( 65-682)
Operator 0  - Memory available             ...  5000 MB
Operator 0  - Memory needed per MO         ...   7.9 MB
Operator 0  - Number of orbitals per batch ... 5
Operator 0  - Number of batches            ... 1

OPERATOR  0   PASS   0:  MOs    29 ...   33 +   34 ...   38 +   39 ...   43 +   44 ...   48
                            +   49 ...   53 +   54 ...   58 +   59 ...   63 +   64 ...   64
  Reading integrals       ... ok
  Internal MO  31
Time spent in pair loops =     0.444 sec
Deleting buffer (Ka|jb)[aa] ...done

-----------------------------------------------
 RI-MP2 CORRELATION ENERGY:     -1.259225362 Eh
-----------------------------------------------


-------
TIMINGS
-------

Total time                :    8.034 sec
Integral trafo            :    3.315 sec ( 41.3%)
I/O of integrals          :    0.017 sec (  0.2%)
K(i,j) Operators          :    0.337 sec (  4.2%)
T(i,j) pair energies      :    0.050 sec (  0.6%)
V-calculation             :    0.029 sec (  0.4%)
V**(-1/2)                 :    0.225 sec (  2.8%)
Gamma(ia|P)               :    0.000 sec (  0.0%)
Gamma-Trafo               :    0.000 sec (  0.0%)
D(virtual)                :    0.000 sec (  0.0%)
D(internal)               :    0.000 sec (  0.0%)
W(virtual)                :    0.000 sec (  0.0%)
W(internal)               :    0.000 sec (  0.0%)
L(virtual)                :    0.000 sec (  0.0%)
L(internal)               :    0.000 sec (  0.0%)
G(D)                      :    0.000 sec (  0.0%)
G(Z)                      :    0.000 sec (  0.0%)
Z-Vector Solution         :    0.000 sec (  0.0%)
3-Index Derivative        :    0.000 sec (  0.0%)
2-Index Derivative        :    0.000 sec (  0.0%)
Separable Gradient (RIJ)  :    0.000 sec (  0.0%)
Separable Gradient (COSX) :    0.000 sec (  0.0%)


---------------------------------------
MP2 TOTAL ENERGY:    -2212.691968964 Eh
---------------------------------------

Maximum memory used throughout the entire MP2-calculation: 182.8 MB


-------------------------------------------------------------------------------
                          DFT DISPERSION CORRECTION                            
                                                                               
                              DFTD3 V3.1  Rev 1                                
                          USING Becke-Johnson damping                          
-------------------------------------------------------------------------------
The DSD-PBEP86 functional is recognized
Active option DFTDOPT                   ...         4   

molecular C6(AA) [au] = 7423.361779 


            DFT-D V3
 parameters
 s6 scaling factor         :     0.4180 
 a1 scaling factor         :     0.0000 
 s8 scaling factor         :     0.0000 
 a2 scaling factor         :     5.6500 
 ad hoc parameters k1-k3   :    16.0000     1.3333    -4.0000 

 Edisp/kcal,au: -10.788373570146  -0.017192365797 
 E6   /kcal   : -10.788373570 
 E8   /kcal   :  -0.000000000 
 % E8         :   0.000000000 

-------------------------   ----------------
Dispersion correction           -0.017192366
-------------------------   ----------------


-------------------------   --------------------
FINAL SINGLE POINT ENERGY     -2212.709161329519
-------------------------   --------------------


                            ***************************************
                            *     ORCA property calculations      *
                            ***************************************


  WARNING: The energy has been calculated at the MP2 level but the densities
           used in the property calculations are still SCF densities
           MP2 response densities have not been calculated 
           use %mp2 Density relaxed end
           or  %mp2 Density unrelaxed end

                                    ---------------------
                                    Active property flags
                                    ---------------------
   (+) Dipole Moment


------------------------------------------------------------------------------
                       ORCA ELECTRIC PROPERTIES CALCULATION
------------------------------------------------------------------------------

Dipole Moment Calculation                       ... on
Quadrupole Moment Calculation                   ... off
Polarizability Calculation                      ... off
GBWName                                         ... A.3.avtz.gbw
Electron density                                ... A.3.avtz.scfp
The origin for moment calculation is the CENTER OF MASS  = (-2.398976,  1.250739 -2.531037)

-------------
DIPOLE MOMENT
-------------
                                X             Y             Z
Electronic contribution:      1.21929       2.19513      -6.36538
Nuclear contribution   :     -1.57724      -1.63713       2.59543
                        -----------------------------------------
Total Dipole Moment    :     -0.35795       0.55800      -3.76995
                        -----------------------------------------
Magnitude (a.u.)       :      3.82779
Magnitude (Debye)      :      9.72948



--------------------
Rotational spectrum 
--------------------
 
Rotational constants in cm-1:     0.023271     0.012619     0.008609 
Rotational constants in MHz :   697.655664   378.320359   258.085078 

 Dipole components along the rotational axes: 
x,y,z [a.u.] :    -3.797690    -0.478516     0.024192 
x,y,z [Debye]:    -9.652960    -1.216290     0.061492 

 

Timings for individual modules:

Sum of individual times         ...      156.610 sec (=   2.610 min)
GTO integral calculation        ...        2.708 sec (=   0.045 min)   1.7 %
SCF iterations                  ...      144.213 sec (=   2.404 min)  92.1 %
MP2 module                      ...        9.690 sec (=   0.161 min)   6.2 %
                             ****ORCA TERMINATED NORMALLY****
TOTAL RUN TIME: 0 days 0 hours 2 minutes 38 seconds 936 msec
