
                                 *****************
                                 * O   R   C   A *
                                 *****************

                                            #,                                       
                                            ###                                      
                                            ####                                     
                                            #####                                    
                                            ######                                   
                                           ########,                                 
                                     ,,################,,,,,                         
                               ,,#################################,,                 
                          ,,##########################################,,             
                       ,#########################################, ''#####,          
                    ,#############################################,,   '####,        
                  ,##################################################,,,,####,       
                ,###########''''           ''''###############################       
              ,#####''   ,,,,##########,,,,          '''####'''          '####       
            ,##' ,,,,###########################,,,                        '##       
           ' ,,###''''                  '''############,,,                           
         ,,##''                                '''############,,,,        ,,,,,,###''
      ,#''                                            '''#######################'''  
     '                                                          ''''####''''         
             ,#######,   #######,   ,#######,      ##                                
            ,#'     '#,  ##    ##  ,#'     '#,    #''#        ######   ,####,        
            ##       ##  ##   ,#'  ##            #'  '#       #        #'  '#        
            ##       ##  #######   ##           ,######,      #####,   #    #        
            '#,     ,#'  ##    ##  '#,     ,#' ,#      #,         ##   #,  ,#        
             '#######'   ##     ##  '#######'  #'      '#     #####' # '####'        



                  #######################################################
                  #                        -***-                        #
                  #          Department of theory and spectroscopy      #
                  #    Directorship and core code : Frank Neese         #
                  #        Max Planck Institute fuer Kohlenforschung    #
                  #                Kaiser Wilhelm Platz 1               #
                  #                 D-45470 Muelheim/Ruhr               #
                  #                      Germany                        #
                  #                                                     #
                  #                  All rights reserved                #
                  #                        -***-                        #
                  #######################################################


                         Program Version 5.0.3 -  RELEASE  -


 With contributions from (in alphabetic order):
   Daniel Aravena         : Magnetic Suceptibility
   Michael Atanasov       : Ab Initio Ligand Field Theory (pilot matlab implementation)
   Alexander A. Auer      : GIAO ZORA, VPT2 properties, NMR spectrum
   Ute Becker             : Parallelization
   Giovanni Bistoni       : ED, misc. LED, open-shell LED, HFLD
   Martin Brehm           : Molecular dynamics
   Dmytro Bykov           : SCF Hessian
   Vijay G. Chilkuri      : MRCI spin determinant printing, contributions to CSF-ICE
   Dipayan Datta          : RHF DLPNO-CCSD density
   Achintya Kumar Dutta   : EOM-CC, STEOM-CC
   Dmitry Ganyushin       : Spin-Orbit,Spin-Spin,Magnetic field MRCI
   Miquel Garcia          : C-PCM and meta-GGA Hessian, CC/C-PCM, Gaussian charge scheme
   Yang Guo               : DLPNO-NEVPT2, F12-NEVPT2, CIM, IAO-localization
   Andreas Hansen         : Spin unrestricted coupled pair/coupled cluster methods
   Benjamin Helmich-Paris : MC-RPA, TRAH-SCF, COSX integrals
   Lee Huntington         : MR-EOM, pCC
   Robert Izsak           : Overlap fitted RIJCOSX, COSX-SCS-MP3, EOM
   Marcus Kettner         : VPT2
   Christian Kollmar      : KDIIS, OOCD, Brueckner-CCSD(T), CCSD density, CASPT2, CASPT2-K
   Simone Kossmann        : Meta GGA functionals, TD-DFT gradient, OOMP2, MP2 Hessian
   Martin Krupicka        : Initial AUTO-CI
   Lucas Lang             : DCDCAS
   Marvin Lechner         : AUTO-CI (C++ implementation), FIC-MRCC
   Dagmar Lenk            : GEPOL surface, SMD
   Dimitrios Liakos       : Extrapolation schemes; Compound Job, initial MDCI parallelization
   Dimitrios Manganas     : Further ROCIS development; embedding schemes
   Dimitrios Pantazis     : SARC Basis sets
   Anastasios Papadopoulos: AUTO-CI, single reference methods and gradients
   Taras Petrenko         : DFT Hessian,TD-DFT gradient, ASA, ECA, R-Raman, ABS, FL, XAS/XES, NRVS
   Peter Pinski           : DLPNO-MP2, DLPNO-MP2 Gradient
   Christoph Reimann      : Effective Core Potentials
   Marius Retegan         : Local ZFS, SOC
   Christoph Riplinger    : Optimizer, TS searches, QM/MM, DLPNO-CCSD(T), (RO)-DLPNO pert. Triples
   Tobias Risthaus        : Range-separated hybrids, TD-DFT gradient, RPA, STAB
   Michael Roemelt        : Original ROCIS implementation
   Masaaki Saitow         : Open-shell DLPNO-CCSD energy and density
   Barbara Sandhoefer     : DKH picture change effects
   Avijit Sen             : IP-ROCIS
   Kantharuban Sivalingam : CASSCF convergence, NEVPT2, FIC-MRCI
   Bernardo de Souza      : ESD, SOC TD-DFT
   Georgi Stoychev        : AutoAux, RI-MP2 NMR, DLPNO-MP2 response
   Willem Van den Heuvel  : Paramagnetic NMR
   Boris Wezisla          : Elementary symmetry handling
   Frank Wennmohs         : Technical directorship


 We gratefully acknowledge several colleagues who have allowed us to
 interface, adapt or use parts of their codes:
   Stefan Grimme, W. Hujo, H. Kruse, P. Pracht,  : VdW corrections, initial TS optimization,
                  C. Bannwarth, S. Ehlert          DFT functionals, gCP, sTDA/sTD-DF
   Ed Valeev, F. Pavosevic, A. Kumar             : LibInt (2-el integral package), F12 methods
   Garnet Chan, S. Sharma, J. Yang, R. Olivares  : DMRG
   Ulf Ekstrom                                   : XCFun DFT Library
   Mihaly Kallay                                 : mrcc  (arbitrary order and MRCC methods)
   Jiri Pittner, Ondrej Demel                    : Mk-CCSD
   Frank Weinhold                                : gennbo (NPA and NBO analysis)
   Christopher J. Cramer and Donald G. Truhlar   : smd solvation model
   Lars Goerigk                                  : TD-DFT with DH, B97 family of functionals
   V. Asgeirsson, H. Jonsson                     : NEB implementation
   FAccTs GmbH                                   : IRC, NEB, NEB-TS, DLPNO-Multilevel, CI-OPT
                                                   MM, QMMM, 2- and 3-layer-ONIOM, Crystal-QMMM,
                                                   LR-CPCM, SF, NACMEs, symmetry and pop. for TD-DFT,
                                                   nearIR, NL-DFT gradient (VV10), updates on ESD,
                                                   ML-optimized integration grids
   S Lehtola, MJT Oliveira, MAL Marques          : LibXC Library
   Liviu Ungur et al                             : ANISO software


 Your calculation uses the libint2 library for the computation of 2-el integrals
 For citations please refer to: http://libint.valeyev.net

 Your ORCA version has been built with support for libXC version: 5.1.0
 For citations please refer to: https://tddft.org/programs/libxc/

 This ORCA versions uses:
   CBLAS   interface :  Fast vector & matrix operations
   LAPACKE interface :  Fast linear algebra routines
   SCALAPACK package :  Parallel linear algebra routines
   Shared memory     :  Shared parallel matrices
   BLAS/LAPACK       :  OpenBLAS 0.3.15  USE64BITINT DYNAMIC_ARCH NO_AFFINITY SkylakeX SINGLE_THREADED
        Core in use  :  SkylakeX
   Copyright (c) 2011-2014, The OpenBLAS Project


Your calculation utilizes the atom-pairwise dispersion correction
with the Becke-Johnson damping scheme (D3BJ)
Cite in your paper:
S.Grimme, S.Ehrlich, L.Goerigk, J Comput Chem, (2011), 32, 1456–1465 
S.Grimme, J.Antony, S.Ehrlich and H.Krieg, J.Chem.Phys., 132, (2010), 154104 
   

================================================================================

----- Orbital basis set information -----
Your calculation utilizes the basis: aug-cc-pVTZ 
    H, B-Ne : Obtained from the ccRepo (grant-hill.group.shef.ac.uk/ccrepo) Feb. 2017
              R. A. Kendall, T. H. Dunning, Jr., R. J. Harrison, J. Chem. Phys. 96, 6796 (1992)
         He : Obtained from the ccRepo (grant-hill.group.shef.ac.uk/ccrepo) Feb. 2017
              D. E. Woon, T. H. Dunning, Jr., J. Chem. Phys. 100, 2975 (1994)
  Li-Be, Na : Obtained from the ccRepo (grant-hill.group.shef.ac.uk/ccrepo) Feb. 2017
              B. P. Prascher, D. E. Woon, K. A. Peterson, T. H. Dunning, Jr., A. K. Wilson, Theor. Chem. Acc. 128, 69 (2011)
         Mg : Obtained from the Peterson Research Group Website (tyr0.chem.wsu.edu/~kipeters) Feb. 2017
              B. P. Prascher, D. E. Woon, K. A. Peterson, T. H. Dunning, Jr., A. K. Wilson, Theor. Chem. Acc. 128, 69 (2011)
      Al-Ar : Obtained from the ccRepo (grant-hill.group.shef.ac.uk/ccrepo) Feb. 2017
              D. E. Woon, T. H. Dunning, Jr., J. Chem. Phys. 98, 1358 (1993)
      Sc-Zn : Obtained from the ccRepo (grant-hill.group.shef.ac.uk/ccrepo) Feb. 2017
              N. B. Balabanov, K. A. Peterson, J. Chem. Phys. 123, 064107 (2005)
              N. B. Balabanov, K. A. Peterson, J. Chem. Phys. 125, 074110 (2006)
      Ga-Kr : Obtained from the ccRepo (grant-hill.group.shef.ac.uk/ccrepo) Feb. 2017
              A. K. Wilson, D. E. Woon, K. A. Peterson, T. H. Dunning, Jr., J. Chem. Phys. 110, 7667 (1999)
     Ag, Au : Obtained from the Peterson Research Group Website (tyr0.chem.wsu.edu/~kipeters) Feb. 2017
              K. A. Peterson, C. Puzzarini, Theor. Chem. Acc. 114, 283 (2005)

----- AuxJ basis set information -----
Your calculation utilizes the auxiliary basis: def2/J
   F. Weigend, Phys. Chem. Chem. Phys. 8, 1057 (2006).

----- AuxC basis set information -----
Your calculation utilizes the auxiliary basis: aug-cc-pVTZ/C 
  H-He, B-F, Al-Ar, Ga-Kr : Obtained from the EMSL Basis Set Exchange (bse.pnl.gov) Feb. 2017
                            F. Weigend, A. Kohn, C. Hattig, J. Chem. Phys. 116, 3175 (2002)
                   Be, Mg : Obtained from the TURBOMOLE 7.0 basis set library
                            C. Haettig, Phys. Chem. Chem. Phys. 7, 59 (2005)
                       Ne : Obtained from the EMSL Basis Set Exchange (bse.pnl.gov) Feb. 2017
                            C. Haettig, Phys. Chem. Chem. Phys. 7, 59 (2005)
                            F. Weigend, A. Kohn, C. Hattig, J. Chem. Phys. 116, 3175 (2002)
                    Sc-Zn : Obtained from the EMSL Basis Set Exchange (bse.pnl.gov) Feb. 2017
                            J. G. Hill, J. A. Platts, J. Chem. Phys. 128, 044104 (2008)

================================================================================
                                        WARNINGS
                       Please study these warnings very carefully!
================================================================================


WARNING: No MP2 level density has been requested!
         To caclulate MP2 level properties use
         %mp2 Density relaxed end
         or
         %mp2 Density unrelaxed end
         Otherwise for double-hybrid DFT only the energy is correct!

WARNING: There are different parametrizations of Gershom Martin's DSD-DFs
         for use with and without D3(BJ)!
         You are using the D3(BJ) parametrized version,
         consistent with the GMTKN55 benchmark (L. Goerigk et al., PCCP 2017, 19, 32184)

WARNING: The frozen-core approximation is turned on by default for 
         the MP2 part of double-hybrid DFT.

INFO   : the flag for use of the SHARK integral package has been found!

================================================================================
                                       INPUT FILE
================================================================================
NAME = A.31.avtz.com
|  1> !PAL8
|  2> !RI-DSD-PBEP86 D3BJ aug-cc-pVTZ aug-cc-pVTZ/C TightSCF
|  3> %maxcore 3000
|  4> 
|  5> 
|  6> * xyz -1 1
|  7> C -1.4516438748  0.5905037287 -0.8427362456
|  8> C -2.5415125752  0.4980270905 -1.7156122661
|  9> Cl -4.1784492334  0.5309734769 -1.1168459512
| 10> C -2.3832637101  0.3875268562 -3.091210955
| 11> H -3.2445926977  0.3314853993 -3.7483109686
| 12> C -1.107524236  0.3672263255 -3.659548353
| 13> C -0.0146111458  0.4433086245 -2.7760164916
| 14> S  1.5939166311  0.2370527545 -3.4431285889
| 15> C -0.1755899753  0.5530925012 -1.398228444
| 16> H  0.6768178044  0.6172855038 -0.726237384
| 17> S -1.6025120046  0.7874273127  0.9918897283
| 18> O -2.3893339663 -0.4106398495  1.3516701773
| 19> O -0.1842601501  0.7940962853  1.3838002986
| 20> N -2.275735074  2.1631919284  1.265967618
| 21> H -3.2844098817  2.0082240897  1.227287805
| 22> N -1.020083838  0.3272278565 -5.0589977735
| 23> C  0.0932990373  0.6077191693 -5.6175295921
| 24> N  1.2700562863  0.9328920242 -4.9603498212
| 25> O  2.5963806058  1.0769540556 -2.8126761048
| 26> O  1.888218688 -1.1737849019 -3.6456268757
| 27> H  0.1478409527  0.6550042256 -6.7040980868
| 28> H  2.1064773574  1.0899875427 -5.514786725
| 29> *
| 30> 
| 31>                          ****END OF INPUT****
================================================================================

                       ****************************
                       * Single Point Calculation *
                       ****************************

---------------------------------
CARTESIAN COORDINATES (ANGSTROEM)
---------------------------------
  C     -1.451644    0.590504   -0.842736
  C     -2.541513    0.498027   -1.715612
  Cl    -4.178449    0.530973   -1.116846
  C     -2.383264    0.387527   -3.091211
  H     -3.244593    0.331485   -3.748311
  C     -1.107524    0.367226   -3.659548
  C     -0.014611    0.443309   -2.776016
  S      1.593917    0.237053   -3.443129
  C     -0.175590    0.553093   -1.398228
  H      0.676818    0.617286   -0.726237
  S     -1.602512    0.787427    0.991890
  O     -2.389334   -0.410640    1.351670
  O     -0.184260    0.794096    1.383800
  N     -2.275735    2.163192    1.265968
  H     -3.284410    2.008224    1.227288
  N     -1.020084    0.327228   -5.058998
  C      0.093299    0.607719   -5.617530
  N      1.270056    0.932892   -4.960350
  O      2.596381    1.076954   -2.812676
  O      1.888219   -1.173785   -3.645627
  H      0.147841    0.655004   -6.704098
  H      2.106477    1.089988   -5.514787

----------------------------
CARTESIAN COORDINATES (A.U.)
----------------------------
  NO LB      ZA    FRAG     MASS         X           Y           Z
   0 C     6.0000    0    12.011   -2.743209    1.115890   -1.592541
   1 C     6.0000    0    12.011   -4.802763    0.941135   -3.242037
   2 Cl   17.0000    0    35.453   -7.896125    1.003394   -2.110533
   3 C     6.0000    0    12.011   -4.503716    0.732320   -5.841542
   4 H     1.0000    0     1.008   -6.131392    0.626417   -7.083281
   5 C     6.0000    0    12.011   -2.092917    0.693957   -6.915544
   6 C     6.0000    0    12.011   -0.027611    0.837732   -5.245911
   7 S    16.0000    0    32.060    3.012066    0.447965   -6.506570
   8 C     6.0000    0    12.011   -0.331817    1.045193   -2.642269
   9 H     1.0000    0     1.008    1.279000    1.166501   -1.372390
  10 S    16.0000    0    32.060   -3.028309    1.488022    1.874400
  11 O     8.0000    0    15.999   -4.515187   -0.775997    2.554286
  12 O     8.0000    0    15.999   -0.348201    1.500625    2.615004
  13 N     7.0000    0    14.007   -4.300516    4.087840    2.392332
  14 H     1.0000    0     1.008   -6.206635    3.794994    2.319238
  15 N     7.0000    0    14.007   -1.927679    0.618371   -9.560120
  16 C     6.0000    0    12.011    0.176310    1.148423  -10.615592
  17 N     7.0000    0    14.007    2.400059    1.762910   -9.373703
  18 O     8.0000    0    15.999    4.906448    2.035148   -5.315188
  19 O     8.0000    0    15.999    3.568216   -2.218132   -6.889236
  20 H     1.0000    0     1.008    0.279379    1.237779  -12.668909
  21 H     1.0000    0     1.008    3.980665    2.059778  -10.421437

--------------------------------
INTERNAL COORDINATES (ANGSTROEM)
--------------------------------
 C      0   0   0     0.000000000000     0.00000000     0.00000000
 C      1   0   0     1.399384957718     0.00000000     0.00000000
 Cl     2   1   0     1.743321022415   121.05139740     0.00000000
 C      2   1   3     1.389073345072   122.29216771   179.45319345
 H      4   2   1     1.084808138633   120.89778999   180.87970999
 C      4   2   1     1.396757214153   120.54136609   359.87581250
 C      6   4   2     1.407435998211   116.93813060     0.90605660
 S      7   6   4     1.753551152186   117.84794568   173.19974445
 C      7   6   4     1.391497965230   122.41210851   359.11745918
 H      9   7   6     1.087332400509   121.72846547   180.38449753
 S      1   2   3     1.851321839830   124.17297810   358.74171943
 O     11   1   2     1.477800966314   101.44430006    58.15642082
 O     11   1   2     1.471419958102   100.71250898   178.66488005
 N     11   1   2     1.555980805989   107.68986849   295.50066221
 H     14  11   1     1.021242393682   106.64870042    86.21571859
 N      6   4   2     1.402748866071   117.59956655   183.39839142
 C     16   6   4     1.276814237059   118.98004288   164.42703894
 N     17  16   6     1.386499282336   125.75140985     1.39149303
 O      8   7   6     1.451839712526   113.58613504   143.70900441
 O      8   7   6     1.455363236298   110.63734340   280.25850431
 H     17  16   6     1.088963631514   119.32044894   184.77283639
 H     18  17  16     1.015716245025   118.45395613   176.86497376

---------------------------
INTERNAL COORDINATES (A.U.)
---------------------------
 C      0   0   0     0.000000000000     0.00000000     0.00000000
 C      1   0   0     2.644454326017     0.00000000     0.00000000
 Cl     2   1   0     3.294399295872   121.05139740     0.00000000
 C      2   1   3     2.624968202116   122.29216771   179.45319345
 H      4   2   1     2.049990289865   120.89778999   180.87970999
 C      4   2   1     2.639488610328   120.54136609   359.87581250
 C      6   4   2     2.659668587641   116.93813060     0.90605660
 S      7   6   4     3.313731439453   117.84794568   173.19974445
 C      7   6   4     2.629550070194   122.41210851   359.11745918
 H      9   7   6     2.054760453500   121.72846547   180.38449753
 S      1   2   3     3.498491263027   124.17297810   358.74171943
 O     11   1   2     2.792639106777   101.44430006    58.15642082
 O     11   1   2     2.780580748799   100.71250898   178.66488005
 N     11   1   2     2.940377592958   107.68986849   295.50066221
 H     14  11   1     1.929868440409   106.64870042    86.21571859
 N      6   4   2     2.650811191542   117.59956655   183.39839142
 C     16   6   4     2.412829231933   118.98004288   164.42703894
 N     17  16   6     2.620103928493   125.75140985     1.39149303
 O      8   7   6     2.743579447026   113.58613504   143.70900441
 O      8   7   6     2.750237941981   110.63734340   280.25850431
 H     17  16   6     2.057843033361   119.32044894   184.77283639
 H     18  17  16     1.919425532873   118.45395613   176.86497376

---------------------
BASIS SET INFORMATION
---------------------
There are 6 groups of distinct atoms

 Group   1 Type C   : 19s6p3d2f contracted to 5s4p3d2f pattern {88111/3111/111/11}
 Group   2 Type Cl  : 42s17p3d2f contracted to 6s5p3d2f pattern {131313111/77111/111/11}
 Group   3 Type H   : 6s3p2d contracted to 4s3p2d pattern {3111/111/11}
 Group   4 Type S   : 42s17p3d2f contracted to 6s5p3d2f pattern {131313111/77111/111/11}
 Group   5 Type O   : 19s6p3d2f contracted to 5s4p3d2f pattern {88111/3111/111/11}
 Group   6 Type N   : 19s6p3d2f contracted to 5s4p3d2f pattern {88111/3111/111/11}

Atom   0C    basis set group =>   1
Atom   1C    basis set group =>   1
Atom   2Cl   basis set group =>   2
Atom   3C    basis set group =>   1
Atom   4H    basis set group =>   3
Atom   5C    basis set group =>   1
Atom   6C    basis set group =>   1
Atom   7S    basis set group =>   4
Atom   8C    basis set group =>   1
Atom   9H    basis set group =>   3
Atom  10S    basis set group =>   4
Atom  11O    basis set group =>   5
Atom  12O    basis set group =>   5
Atom  13N    basis set group =>   6
Atom  14H    basis set group =>   3
Atom  15N    basis set group =>   6
Atom  16C    basis set group =>   1
Atom  17N    basis set group =>   6
Atom  18O    basis set group =>   5
Atom  19O    basis set group =>   5
Atom  20H    basis set group =>   3
Atom  21H    basis set group =>   3
---------------------------------
AUXILIARY/J BASIS SET INFORMATION
---------------------------------
There are 6 groups of distinct atoms

 Group   1 Type C   : 12s5p4d2f1g contracted to 6s4p3d1f1g pattern {711111/2111/211/2/1}
 Group   2 Type Cl  : 14s5p5d2f1g contracted to 8s4p3d1f1g pattern {71111111/2111/311/2/1}
 Group   3 Type H   : 5s2p1d contracted to 3s1p1d pattern {311/2/1}
 Group   4 Type S   : 14s5p5d2f1g contracted to 8s4p3d1f1g pattern {71111111/2111/311/2/1}
 Group   5 Type O   : 12s5p4d2f1g contracted to 6s4p3d1f1g pattern {711111/2111/211/2/1}
 Group   6 Type N   : 12s5p4d2f1g contracted to 6s4p3d1f1g pattern {711111/2111/211/2/1}

Atom   0C    basis set group =>   1
Atom   1C    basis set group =>   1
Atom   2Cl   basis set group =>   2
Atom   3C    basis set group =>   1
Atom   4H    basis set group =>   3
Atom   5C    basis set group =>   1
Atom   6C    basis set group =>   1
Atom   7S    basis set group =>   4
Atom   8C    basis set group =>   1
Atom   9H    basis set group =>   3
Atom  10S    basis set group =>   4
Atom  11O    basis set group =>   5
Atom  12O    basis set group =>   5
Atom  13N    basis set group =>   6
Atom  14H    basis set group =>   3
Atom  15N    basis set group =>   6
Atom  16C    basis set group =>   1
Atom  17N    basis set group =>   6
Atom  18O    basis set group =>   5
Atom  19O    basis set group =>   5
Atom  20H    basis set group =>   3
Atom  21H    basis set group =>   3
---------------------------------
AUXILIARY/C BASIS SET INFORMATION
---------------------------------
There are 6 groups of distinct atoms

 Group   1 Type C   : 9s7p6d4f2g contracted to 9s7p6d4f2g pattern {111111111/1111111/111111/1111/11}
 Group   2 Type Cl  : 11s9p8d6f3g contracted to 11s9p8d6f3g pattern {11111111111/111111111/11111111/111111/111}
 Group   3 Type H   : 5s4p3d2f contracted to 5s4p3d2f pattern {11111/1111/111/11}
 Group   4 Type S   : 11s9p8d6f3g contracted to 11s9p8d6f3g pattern {11111111111/111111111/11111111/111111/111}
 Group   5 Type O   : 9s7p6d4f2g contracted to 9s7p6d4f2g pattern {111111111/1111111/111111/1111/11}
 Group   6 Type N   : 9s7p6d4f2g contracted to 9s7p6d4f2g pattern {111111111/1111111/111111/1111/11}

Atom   0C    basis set group =>   1
Atom   1C    basis set group =>   1
Atom   2Cl   basis set group =>   2
Atom   3C    basis set group =>   1
Atom   4H    basis set group =>   3
Atom   5C    basis set group =>   1
Atom   6C    basis set group =>   1
Atom   7S    basis set group =>   4
Atom   8C    basis set group =>   1
Atom   9H    basis set group =>   3
Atom  10S    basis set group =>   4
Atom  11O    basis set group =>   5
Atom  12O    basis set group =>   5
Atom  13N    basis set group =>   6
Atom  14H    basis set group =>   3
Atom  15N    basis set group =>   6
Atom  16C    basis set group =>   1
Atom  17N    basis set group =>   6
Atom  18O    basis set group =>   5
Atom  19O    basis set group =>   5
Atom  20H    basis set group =>   3
Atom  21H    basis set group =>   3


           ************************************************************
           *        Program running with 8 parallel MPI-processes     *
           *              working on a common directory               *
           ************************************************************
------------------------------------------------------------------------------
                           ORCA GTO INTEGRAL CALCULATION
                           -- RI-GTO INTEGRALS CHOSEN --
------------------------------------------------------------------------------
------------------------------------------------------------------------------
                   ___                                                        
                  /   \      - P O W E R E D   B Y -                         
                 /     \                                                     
                 |  |  |   _    _      __       _____    __    __             
                 |  |  |  | |  | |    /  \     |  _  \  |  |  /  |          
                  \  \/   | |  | |   /    \    | | | |  |  | /  /          
                 / \  \   | |__| |  /  /\  \   | |_| |  |  |/  /          
                |  |  |   |  __  | /  /__\  \  |    /   |      \           
                |  |  |   | |  | | |   __   |  |    \   |  |\   \          
                \     /   | |  | | |  |  |  |  | |\  \  |  | \   \       
                 \___/    |_|  |_| |__|  |__|  |_| \__\ |__|  \__/        
                                                                              
                      - O R C A' S   B I G   F R I E N D -                    
                                      &                                       
                       - I N T E G R A L  F E E D E R -                       
                                                                              
 v1 FN, 2020, v2 2021                                                         
------------------------------------------------------------------------------


Reading SHARK input file A.31.avtz.SHARKINP.tmp ... ok
----------------------
SHARK INTEGRAL PACKAGE
----------------------

Number of atoms                             ...     22
Number of basis functions                   ...   1068
Number of shells                            ...    418
Maximum angular momentum                    ...      3
Integral batch strategy                     ... SHARK/LIBINT Hybrid
RI-J (if used) integral strategy            ... SPLIT-RIJ (Revised 2003 algorithm where possible)
Printlevel                                  ...      1
Contraction scheme used                     ... PARTIAL GENERAL contraction
Coulomb Range Separation                    ... NOT USED
Exchange Range Separation                   ... NOT USED
Finite Nucleus Model                        ... NOT USED
Auxiliary Coulomb fitting basis             ... AVAILABLE
   # of basis functions in Aux-J            ...    894
   # of shells in Aux-J                     ...    286
   Maximum angular momentum in Aux-J        ...      4
Auxiliary J/K fitting basis                 ... NOT available
Auxiliary Correlation fitting basis         ... AVAILABLE
   # of basis functions in Aux-C            ...   2155
   # of shells in Aux-C                     ...    573
   Maximum angular momentum in Aux-C        ...      4
Auxiliary 'external' fitting basis          ... NOT available
Integral threshold                          ...     2.500000e-11
Primitive cut-off                           ...     2.500000e-12
Primitive pair pre-selection threshold      ...     2.500000e-12

Calculating pre-screening integrals         ... done (  0.1 sec) Dimension = 418
Calculating pre-screening integrals (ORCA)  ... done (  0.3 sec) Dimension = 289
Organizing shell pair data                  ... done (  0.6 sec)
Shell pair information
Total number of shell pairs                 ...     87571
Shell pairs after pre-screening             ...     59099
Total number of primitive shell pairs       ...    104253
Primitive shell pairs kept                  ...     66098
          la=0 lb=0:  12419 shell pairs
          la=1 lb=0:  15429 shell pairs
          la=1 lb=1:   4215 shell pairs
          la=2 lb=0:   9793 shell pairs
          la=2 lb=1:   5158 shell pairs
          la=2 lb=2:   1637 shell pairs
          la=3 lb=0:   5323 shell pairs
          la=3 lb=1:   2824 shell pairs
          la=3 lb=2:   1790 shell pairs
          la=3 lb=3:    511 shell pairs

Calculating one electron integrals          ... done (  0.1 sec)
Calculating RI/J V-Matrix + Cholesky decomp.... done (  0.1 sec)
Calculating RI/C V-Matrix + Cholesky decomp.... done (  0.2 sec)
Calculating Nuclear repulsion               ... done (  0.0 sec) ENN=   1678.486988911202 Eh

SHARK setup successfully completed in   2.0 seconds

Maximum memory used throughout the entire GTOINT-calculation: 93.3 MB


           ************************************************************
           *        Program running with 8 parallel MPI-processes     *
           *              working on a common directory               *
           ************************************************************
-------------------------------------------------------------------------------
                                 ORCA SCF
-------------------------------------------------------------------------------

------------
SCF SETTINGS
------------
Hamiltonian:
 Density Functional     Method          .... DFT(GTOs)
 Exchange Functional    Exchange        .... PBE
   PBE kappa parameter   XKappa         ....  0.804000
   PBE mue parameter    XMuePBE         ....  0.219520
 Correlation Functional Correlation     .... P86
 LDA part of GGA corr.  LDAOpt          .... VWN-5
 Gradients option       PostSCFGGA      .... off
 Hybrid DFT is turned on
   Fraction HF Exchange ScalHFX         ....  0.700000
   Scaling of DF-GGA-X  ScalDFX         ....  0.300000
   Scaling of DF-GGA-C  ScalDFC         ....  0.430000
   Scaling of DF-LDA-C  ScalLDAC        ....  0.430000
   Perturbative correction              ....  1.000000
   Density functional embedding theory  .... OFF
   NL short-range parameter             .... 14.200000
 RI-approximation to the Coulomb term is turned on
   Number of AuxJ basis functions       .... 894
   RIJ-COSX (HFX calculated with COS-X)).... on


General Settings:
 Integral files         IntName         .... A.31.avtz
 Hartree-Fock type      HFTyp           .... RHF
 Total Charge           Charge          ....   -1
 Multiplicity           Mult            ....    1
 Number of Electrons    NEL             ....  150
 Basis Dimension        Dim             ....  909
 Nuclear Repulsion      ENuc            ....   1678.4869889112 Eh

Convergence Acceleration:
 DIIS                   CNVDIIS         .... on
   Start iteration      DIISMaxIt       ....    12
   Startup error        DIISStart       ....  0.200000
   # of expansion vecs  DIISMaxEq       ....     5
   Bias factor          DIISBfac        ....   1.050
   Max. coefficient     DIISMaxC        ....  10.000
 Trust-Rad. Augm. Hess. CNVTRAH         .... auto
   Auto Start mean grad. ratio tolernc. ....  1.125000
   Auto Start start iteration           ....    20
   Auto Start num. interpolation iter.  ....    10
   Max. Number of Micro iterations      ....    16
   Max. Number of Macro iterations      .... Maxiter - #DIIS iter
   Number of Davidson start vectors     ....     2
   Converg. threshold I  (grad. norm)   ....   1.000e-05
   Converg. threshold II (energy diff.) ....   1.000e-08
   Grad. Scal. Fac. for Micro threshold ....   0.100
   Minimum threshold for Micro iter.    ....   0.010
   NR start threshold (gradient norm)   ....   0.001
   Initial trust radius                 ....   0.400
   Minimum AH scaling param. (alpha)    ....   1.000
   Maximum AH scaling param. (alpha)    .... 1000.000
   Orbital update algorithm             .... Taylor
   White noise on init. David. guess    .... on
   Maximum white noise                  ....   0.010
   Quad. conv. algorithm                .... NR
 SOSCF                  CNVSOSCF        .... on
   Start iteration      SOSCFMaxIt      ....   150
   Startup grad/error   SOSCFStart      ....  0.003300
 Level Shifting         CNVShift        .... on
   Level shift para.    LevelShift      ....    0.2500
   Turn off err/grad.   ShiftErr        ....    0.0010
 Zerner damping         CNVZerner       .... off
 Static damping         CNVDamp         .... on
   Fraction old density DampFac         ....    0.7000
   Max. Damping (<1)    DampMax         ....    0.9800
   Min. Damping (>=0)   DampMin         ....    0.0000
   Turn off err/grad.   DampErr         ....    0.1000
 Fernandez-Rico         CNVRico         .... off

SCF Procedure:
 Maximum # iterations   MaxIter         ....   125
 SCF integral mode      SCFMode         .... Direct
   Integral package                     .... SHARK and LIBINT hybrid scheme
 Reset frequency        DirectResetFreq ....    20
 Integral Threshold     Thresh          ....  2.500e-11 Eh
 Primitive CutOff       TCut            ....  2.500e-12 Eh

Convergence Tolerance:
 Convergence Check Mode ConvCheckMode   .... Total+1el-Energy
 Convergence forced     ConvForced      .... 0
 Energy Change          TolE            ....  1.000e-08 Eh
 1-El. energy change                    ....  1.000e-05 Eh
 Orbital Gradient       TolG            ....  1.000e-05
 Orbital Rotation angle TolX            ....  1.000e-05
 DIIS Error             TolErr          ....  5.000e-07


Diagonalization of the overlap matrix:
Smallest eigenvalue                        ... 2.002e-07
Time for diagonalization                   ...    0.146 sec
Threshold for overlap eigenvalues          ... 1.000e-08
Number of eigenvalues below threshold      ... 0
Time for construction of square roots      ...    0.077 sec
Total time needed                          ...    0.228 sec

Time for model grid setup =    0.206 sec

------------------------------
INITIAL GUESS: MODEL POTENTIAL
------------------------------
Loading Hartree-Fock densities                     ... done
Calculating cut-offs                               ... done
Initializing the effective Hamiltonian             ... done
Setting up the integral package (SHARK)            ... done
Starting the Coulomb interaction                   ... done (   0.6 sec)
Reading the grid                                   ... done
Mapping shells                                     ... done
Starting the XC term evaluation                    ... done (   0.7 sec)
  promolecular density results
     # of electrons  =    148.994304316
     EX              =   -166.899044260
     EC              =     -0.025405932
     EX+EC           =   -166.924450193
Transforming the Hamiltonian                       ... done (   0.1 sec)
Diagonalizing the Hamiltonian                      ... done (   0.2 sec)
Back transforming the eigenvectors                 ... done (   0.0 sec)
Now organizing SCF variables                       ... done
                      ------------------
                      INITIAL GUESS DONE (   1.8 sec)
                      ------------------
-------------------
DFT GRID GENERATION
-------------------

General Integration Accuracy     IntAcc      ... 4.388
Radial Grid Type                 RadialGrid  ... OptM3 with GC (2021)
Angular Grid (max. ang.)         AngularGrid ... 4 (Lebedev-302)
Angular grid pruning method      GridPruning ... 4 (adaptive)
Weight generation scheme         WeightScheme... Becke
Basis function cutoff            BFCut       ... 1.0000e-11
Integration weight cutoff        WCut        ... 1.0000e-14
Angular grids for H and He will be reduced by one unit
Partially contracted basis set               ... off
Rotationally invariant grid construction     ... off

Total number of grid points                  ...   127500
Total number of batches                      ...     2004
Average number of points per batch           ...       63
Average number of grid points per atom       ...     5795
Time for grid setup =    0.774 sec

--------------------
COSX GRID GENERATION
--------------------

GRIDX 1
-------
General Integration Accuracy     IntAcc      ... 3.816
Radial Grid Type                 RadialGrid  ... OptM3 with GC (2021)
Angular Grid (max. ang.)         AngularGrid ... 1 (Lebedev-50)
Angular grid pruning method      GridPruning ... 4 (adaptive)
Weight generation scheme         WeightScheme... Becke
Basis function cutoff            BFCut       ... 1.0000e-11
Integration weight cutoff        WCut        ... 1.0000e-14
Angular grids for H and He will be reduced by one unit
Partially contracted basis set               ... on
Rotationally invariant grid construction     ... off

Total number of grid points                  ...    15770
Total number of batches                      ...      259
Average number of points per batch           ...       60
Average number of grid points per atom       ...      717
UseSFitting                                  ... on

GRIDX 2
-------
General Integration Accuracy     IntAcc      ... 4.020
Radial Grid Type                 RadialGrid  ... OptM3 with GC (2021)
Angular Grid (max. ang.)         AngularGrid ... 2 (Lebedev-110)
Angular grid pruning method      GridPruning ... 4 (adaptive)
Weight generation scheme         WeightScheme... Becke
Basis function cutoff            BFCut       ... 1.0000e-11
Integration weight cutoff        WCut        ... 1.0000e-14
Angular grids for H and He will be reduced by one unit
Partially contracted basis set               ... on
Rotationally invariant grid construction     ... off

Total number of grid points                  ...    39717
Total number of batches                      ...      630
Average number of points per batch           ...       63
Average number of grid points per atom       ...     1805
UseSFitting                                  ... on

GRIDX 3
-------
General Integration Accuracy     IntAcc      ... 4.338
Radial Grid Type                 RadialGrid  ... OptM3 with GC (2021)
Angular Grid (max. ang.)         AngularGrid ... 3 (Lebedev-194)
Angular grid pruning method      GridPruning ... 4 (adaptive)
Weight generation scheme         WeightScheme... Becke
Basis function cutoff            BFCut       ... 1.0000e-11
Integration weight cutoff        WCut        ... 1.0000e-14
Angular grids for H and He will be reduced by one unit
Partially contracted basis set               ... on
Rotationally invariant grid construction     ... off

Total number of grid points                  ...    88707
Total number of batches                      ...     1397
Average number of points per batch           ...       63
Average number of grid points per atom       ...     4032
UseSFitting                                  ... on

Time for X-Grid setup             =    1.870 sec

 re-compute Schwartz prescreening matrix in partically contracted basis (1) ...done (   0.119 sec)
--------------
SCF ITERATIONS
--------------
ITER       Energy         Delta-E        Max-DP      RMS-DP      [F,P]     Damp
               ***  Starting incremental Fock matrix formation  ***
  0  -1987.2955401441   0.000000000000 0.36328516  0.00192795  0.3328722 0.7000
  1  -1987.5847649396  -0.289224795548 0.23123623  0.00145853  0.1819484 0.7000
                               ***Turning on DIIS***
  2  -1987.7204923997  -0.135727460115 0.38012926  0.00338152  0.0827776 0.0000
  3  -1987.9491898300  -0.228697430241 0.18077047  0.00098206  0.0782897 0.0000
  4  -1987.9845289181  -0.035339088100 0.03563114  0.00027429  0.0117070 0.0000
  5  -1987.9857278244  -0.001198906338 0.01252735  0.00012484  0.0053561 0.0000
                      *** Initiating the SOSCF procedure ***
                           *** Shutting down DIIS ***
                      *** Re-Reading the Fockian *** 
                      *** Removing any level shift *** 
ITER      Energy       Delta-E        Grad      Rot      Max-DP    RMS-DP
  6  -1987.98605159  -0.0003237697  0.000928  0.000928  0.048695  0.000239
               *** Restarting incremental Fock matrix formation ***
  7  -1987.98612855  -0.0000769551  0.000486  0.001552  0.179588  0.000895
  8  -1987.98615374  -0.0000251921  0.000267  0.001712  0.107133  0.000553
  9  -1987.98615927  -0.0000055316  0.000092  0.000189  0.060213  0.000335
 10  -1987.98616172  -0.0000024455  0.000032  0.000118  0.032967  0.000211
 11  -1987.98616189  -0.0000001672  0.000025  0.000068  0.049435  0.000230
 12  -1987.98616194  -0.0000000526  0.000007  0.000042  0.025268  0.000146
                  ***Gradient check signals convergence***
              ***Rediagonalizing the Fockian in SOSCF/NRSCF***

               *****************************************************
               *                     SUCCESS                       *
               *           SCF CONVERGED AFTER  13 CYCLES          *
               *****************************************************

Old exchange energy                            =   -118.259536440 Eh
New exchange energy                            =   -118.259254491 Eh
Exchange energy change after final integration =      0.000281949 Eh
Total energy after final integration           =  -1987.985879992 Eh
Final COS-X integration done in                =    38.108 sec

----------------
TOTAL SCF ENERGY
----------------

Total Energy       :        -1987.98587999 Eh          -54095.84597 eV

Components:
Nuclear Repulsion  :         1678.48698891 Eh           45673.95299 eV
Electronic Energy  :        -3666.47286890 Eh          -99769.79896 eV
One Electron Energy:        -6094.22044160 Eh         -165832.16896 eV
Two Electron Energy:         2427.74757270 Eh           66062.37000 eV
Max COSX asymmetry :            0.00002434 Eh               0.00066 eV

Virial components:
Potential Energy   :        -3971.39235501 Eh         -108067.08000 eV
Kinetic Energy     :         1983.40647502 Eh           53971.23403 eV
Virial Ratio       :            2.00230886


DFT components:
N(Alpha)           :       75.000033374969 electrons
N(Beta)            :       75.000033374969 electrons
N(Total)           :      150.000066749939 electrons
E(X)               :      -50.503755878826 Eh       
E(C)               :       -2.607997584088 Eh       
E(XC)              :      -53.111753462914 Eh       
DFET-embed. en.    :        0.000000000000 Eh       

---------------
SCF CONVERGENCE
---------------

  Last Energy change         ...   -2.9404e-09  Tolerance :   1.0000e-08
  Last MAX-Density change    ...    3.1086e-15  Tolerance :   1.0000e-07
  Last RMS-Density change    ...    2.3710e-17  Tolerance :   5.0000e-09
  Last Orbital Gradient      ...    2.4260e-06  Tolerance :   1.0000e-05
  Last Orbital Rotation      ...    4.8687e-06  Tolerance :   1.0000e-05

             **** THE GBW FILE WAS UPDATED (A.31.avtz.gbw) ****
             **** DENSITY A.31.avtz.scfp WAS UPDATED ****
             **** ENERGY FILE WAS UPDATED (A.31.avtz.en.tmp) ****
             **** THE GBW FILE WAS UPDATED (A.31.avtz.gbw) ****
             **** DENSITY A.31.avtz.scfp WAS UPDATED ****
----------------
ORBITAL ENERGIES
----------------

  NO   OCC          E(Eh)            E(eV) 
   0   2.0000    -103.513022     -2816.7325 
   1   2.0000     -90.969174     -2475.3971 
   2   2.0000     -90.861174     -2472.4582 
   3   2.0000     -19.944424      -542.7154 
   4   2.0000     -19.940678      -542.6134 
   5   2.0000     -19.839694      -539.8655 
   6   2.0000     -19.839036      -539.8476 
   7   2.0000     -15.087294      -410.5461 
   8   2.0000     -15.032236      -409.0479 
   9   2.0000     -14.898689      -405.4139 
  10   2.0000     -10.868851      -295.7565 
  11   2.0000     -10.820970      -294.4536 
  12   2.0000     -10.814061      -294.2656 
  13   2.0000     -10.791828      -293.6606 
  14   2.0000     -10.765792      -292.9521 
  15   2.0000     -10.763367      -292.8861 
  16   2.0000     -10.760526      -292.8088 
  17   2.0000     -10.060966      -273.7728 
  18   2.0000      -8.712620      -237.0825 
  19   2.0000      -8.602445      -234.0844 
  20   2.0000      -7.634134      -207.7353 
  21   2.0000      -7.629667      -207.6138 
  22   2.0000      -7.629338      -207.6048 
  23   2.0000      -6.500009      -176.8742 
  24   2.0000      -6.496159      -176.7695 
  25   2.0000      -6.495474      -176.7508 
  26   2.0000      -6.389231      -173.8598 
  27   2.0000      -6.386768      -173.7928 
  28   2.0000      -6.385763      -173.7654 
  29   2.0000      -1.265203       -34.4279 
  30   2.0000      -1.152611       -31.3641 
  31   2.0000      -1.144659       -31.1477 
  32   2.0000      -1.124087       -30.5880 
  33   2.0000      -1.036080       -28.1932 
  34   2.0000      -1.034350       -28.1461 
  35   2.0000      -0.990236       -26.9457 
  36   2.0000      -0.937277       -25.5046 
  37   2.0000      -0.894963       -24.3532 
  38   2.0000      -0.853437       -23.2232 
  39   2.0000      -0.848894       -23.0996 
  40   2.0000      -0.751925       -20.4609 
  41   2.0000      -0.733611       -19.9626 
  42   2.0000      -0.678609       -18.4659 
  43   2.0000      -0.633815       -17.2470 
  44   2.0000      -0.609720       -16.5913 
  45   2.0000      -0.601265       -16.3613 
  46   2.0000      -0.577819       -15.7233 
  47   2.0000      -0.532044       -14.4777 
  48   2.0000      -0.519333       -14.1318 
  49   2.0000      -0.510993       -13.9048 
  50   2.0000      -0.498514       -13.5652 
  51   2.0000      -0.482733       -13.1358 
  52   2.0000      -0.464966       -12.6524 
  53   2.0000      -0.454001       -12.3540 
  54   2.0000      -0.441899       -12.0247 
  55   2.0000      -0.420350       -11.4383 
  56   2.0000      -0.411412       -11.1951 
  57   2.0000      -0.405282       -11.0283 
  58   2.0000      -0.392764       -10.6876 
  59   2.0000      -0.383915       -10.4469 
  60   2.0000      -0.370885       -10.0923 
  61   2.0000      -0.348966        -9.4958 
  62   2.0000      -0.336689        -9.1618 
  63   2.0000      -0.336324        -9.1518 
  64   2.0000      -0.321636        -8.7522 
  65   2.0000      -0.316672        -8.6171 
  66   2.0000      -0.300639        -8.1808 
  67   2.0000      -0.295238        -8.0338 
  68   2.0000      -0.272760        -7.4222 
  69   2.0000      -0.258694        -7.0394 
  70   2.0000      -0.243278        -6.6199 
  71   2.0000      -0.229445        -6.2435 
  72   2.0000      -0.214277        -5.8308 
  73   2.0000      -0.207431        -5.6445 
  74   2.0000      -0.172714        -4.6998 
  75   0.0000       0.070156         1.9090 
  76   0.0000       0.091887         2.5004 
  77   0.0000       0.099134         2.6976 
  78   0.0000       0.101414         2.7596 
  79   0.0000       0.120382         3.2758 
  80   0.0000       0.127761         3.4766 
  81   0.0000       0.129612         3.5269 
  82   0.0000       0.133778         3.6403 
  83   0.0000       0.142430         3.8757 
  84   0.0000       0.149872         4.0782 
  85   0.0000       0.150987         4.1086 
  86   0.0000       0.155643         4.2353 
  87   0.0000       0.161005         4.3812 
  88   0.0000       0.163121         4.4387 
  89   0.0000       0.173166         4.7121 
  90   0.0000       0.179220         4.8768 
  91   0.0000       0.182166         4.9570 
  92   0.0000       0.183050         4.9811 
  93   0.0000       0.188971         5.1422 
  94   0.0000       0.191085         5.1997 
  95   0.0000       0.192428         5.2362 
  96   0.0000       0.196463         5.3460 
  97   0.0000       0.205300         5.5865 
  98   0.0000       0.209013         5.6875 
  99   0.0000       0.213075         5.7981 
 100   0.0000       0.214060         5.8249 
 101   0.0000       0.219157         5.9636 
 102   0.0000       0.223082         6.0704 
 103   0.0000       0.223815         6.0903 
 104   0.0000       0.232019         6.3136 
 105   0.0000       0.237822         6.4715 
 106   0.0000       0.240724         6.5504 
 107   0.0000       0.243736         6.6324 
 108   0.0000       0.246807         6.7160 
 109   0.0000       0.250395         6.8136 
 110   0.0000       0.255896         6.9633 
 111   0.0000       0.261073         7.1041 
 112   0.0000       0.262036         7.1304 
 113   0.0000       0.265854         7.2343 
 114   0.0000       0.267358         7.2752 
 115   0.0000       0.270411         7.3583 
 116   0.0000       0.272534         7.4160 
 117   0.0000       0.276375         7.5205 
 118   0.0000       0.283324         7.7096 
 119   0.0000       0.285562         7.7705 
 120   0.0000       0.288491         7.8502 
 121   0.0000       0.292499         7.9593 
 122   0.0000       0.295668         8.0455 
 123   0.0000       0.296801         8.0764 
 124   0.0000       0.301151         8.1947 
 125   0.0000       0.304182         8.2772 
 126   0.0000       0.308375         8.3913 
 127   0.0000       0.309978         8.4349 
 128   0.0000       0.318494         8.6667 
 129   0.0000       0.321266         8.7421 
 130   0.0000       0.324833         8.8391 
 131   0.0000       0.329728         8.9724 
 132   0.0000       0.334754         9.1091 
 133   0.0000       0.337936         9.1957 
 134   0.0000       0.339547         9.2396 
 135   0.0000       0.342634         9.3236 
 136   0.0000       0.347354         9.4520 
 137   0.0000       0.348846         9.4926 
 138   0.0000       0.351743         9.5714 
 139   0.0000       0.354277         9.6404 
 140   0.0000       0.358181         9.7466 
 141   0.0000       0.365206         9.9378 
 142   0.0000       0.365608         9.9487 
 143   0.0000       0.369193        10.0463 
 144   0.0000       0.374572        10.1926 
 145   0.0000       0.375633        10.2215 
 146   0.0000       0.378114        10.2890 
 147   0.0000       0.383303        10.4302 
 148   0.0000       0.386771        10.5246 
 149   0.0000       0.388402        10.5689 
 150   0.0000       0.396413        10.7869 
 151   0.0000       0.399412        10.8685 
 152   0.0000       0.400934        10.9100 
 153   0.0000       0.404146        10.9974 
 154   0.0000       0.406168        11.0524 
 155   0.0000       0.408299        11.1104 
 156   0.0000       0.410411        11.1679 
 157   0.0000       0.416723        11.3396 
 158   0.0000       0.421996        11.4831 
 159   0.0000       0.427226        11.6254 
 160   0.0000       0.431525        11.7424 
 161   0.0000       0.433051        11.7839 
 162   0.0000       0.436110        11.8672 
 163   0.0000       0.439145        11.9497 
 164   0.0000       0.447500        12.1771 
 165   0.0000       0.452370        12.3096 
 166   0.0000       0.456743        12.4286 
 167   0.0000       0.464529        12.6405 
 168   0.0000       0.466602        12.6969 
 169   0.0000       0.469623        12.7791 
 170   0.0000       0.476606        12.9691 
 171   0.0000       0.480068        13.0633 
 172   0.0000       0.484964        13.1965 
 173   0.0000       0.491642        13.3782 
 174   0.0000       0.495364        13.4795 
 175   0.0000       0.496838        13.5197 
 176   0.0000       0.502578        13.6758 
 177   0.0000       0.508087        13.8258 
 178   0.0000       0.509047        13.8519 
 179   0.0000       0.512520        13.9464 
 180   0.0000       0.517640        14.0857 
 181   0.0000       0.521131        14.1807 
 182   0.0000       0.527933        14.3658 
 183   0.0000       0.529019        14.3953 
 184   0.0000       0.530061        14.4237 
 185   0.0000       0.533038        14.5047 
 186   0.0000       0.539104        14.6698 
 187   0.0000       0.541983        14.7481 
 188   0.0000       0.545774        14.8513 
 189   0.0000       0.549639        14.9564 
 190   0.0000       0.553212        15.0537 
 191   0.0000       0.553998        15.0751 
 192   0.0000       0.559198        15.2165 
 193   0.0000       0.561361        15.2754 
 194   0.0000       0.563327        15.3289 
 195   0.0000       0.568245        15.4627 
 196   0.0000       0.573746        15.6124 
 197   0.0000       0.579888        15.7796 
 198   0.0000       0.581626        15.8268 
 199   0.0000       0.591542        16.0967 
 200   0.0000       0.593898        16.1608 
 201   0.0000       0.594972        16.1900 
 202   0.0000       0.603402        16.4194 
 203   0.0000       0.605707        16.4821 
 204   0.0000       0.609281        16.5794 
 205   0.0000       0.612085        16.6557 
 206   0.0000       0.614092        16.7103 
 207   0.0000       0.617355        16.7991 
 208   0.0000       0.620935        16.8965 
 209   0.0000       0.622210        16.9312 
 210   0.0000       0.629159        17.1203 
 211   0.0000       0.638721        17.3805 
 212   0.0000       0.640230        17.4215 
 213   0.0000       0.643160        17.5013 
 214   0.0000       0.646572        17.5941 
 215   0.0000       0.655209        17.8291 
 216   0.0000       0.663414        18.0524 
 217   0.0000       0.667055        18.1515 
 218   0.0000       0.677322        18.4309 
 219   0.0000       0.679135        18.4802 
 220   0.0000       0.680965        18.5300 
 221   0.0000       0.688909        18.7462 
 222   0.0000       0.696877        18.9630 
 223   0.0000       0.699278        19.0283 
 224   0.0000       0.705330        19.1930 
 225   0.0000       0.706613        19.2279 
 226   0.0000       0.714493        19.4423 
 227   0.0000       0.721083        19.6217 
 228   0.0000       0.729038        19.8381 
 229   0.0000       0.730397        19.8751 
 230   0.0000       0.733913        19.9708 
 231   0.0000       0.742201        20.1963 
 232   0.0000       0.749105        20.3842 
 233   0.0000       0.753312        20.4987 
 234   0.0000       0.758088        20.6286 
 235   0.0000       0.767543        20.8859 
 236   0.0000       0.769719        20.9451 
 237   0.0000       0.773793        21.0560 
 238   0.0000       0.777220        21.1492 
 239   0.0000       0.784050        21.3351 
 240   0.0000       0.786609        21.4047 
 241   0.0000       0.794449        21.6180 
 242   0.0000       0.796950        21.6861 
 243   0.0000       0.805295        21.9132 
 244   0.0000       0.810515        22.0552 
 245   0.0000       0.813679        22.1413 
 246   0.0000       0.821115        22.3437 
 247   0.0000       0.824518        22.4363 
 248   0.0000       0.827933        22.5292 
 249   0.0000       0.831515        22.6267 
 250   0.0000       0.839854        22.8536 
 251   0.0000       0.842209        22.9177 
 252   0.0000       0.849104        23.1053 
 253   0.0000       0.857180        23.3250 
 254   0.0000       0.858276        23.3549 
 255   0.0000       0.864966        23.5369 
 256   0.0000       0.871383        23.7115 
 257   0.0000       0.880832        23.9687 
 258   0.0000       0.883033        24.0285 
 259   0.0000       0.885187        24.0872 
 260   0.0000       0.890348        24.2276 
 261   0.0000       0.894760        24.3477 
 262   0.0000       0.901262        24.5246 
 263   0.0000       0.904242        24.6057 
 264   0.0000       0.906238        24.6600 
 265   0.0000       0.913665        24.8621 
 266   0.0000       0.919104        25.0101 
 267   0.0000       0.923429        25.1278 
 268   0.0000       0.926855        25.2210 
 269   0.0000       0.928790        25.2736 
 270   0.0000       0.937044        25.4983 
 271   0.0000       0.943700        25.6794 
 272   0.0000       0.953018        25.9329 
 273   0.0000       0.955756        26.0075 
 274   0.0000       0.957742        26.0615 
 275   0.0000       0.959950        26.1216 
 276   0.0000       0.966116        26.2894 
 277   0.0000       0.969934        26.3932 
 278   0.0000       0.975995        26.5582 
 279   0.0000       0.980523        26.6814 
 280   0.0000       0.988969        26.9112 
 281   0.0000       0.994544        27.0629 
 282   0.0000       0.995822        27.0977 
 283   0.0000       1.001233        27.2449 
 284   0.0000       1.009134        27.4599 
 285   0.0000       1.011412        27.5219 
 286   0.0000       1.016311        27.6552 
 287   0.0000       1.017570        27.6895 
 288   0.0000       1.023510        27.8511 
 289   0.0000       1.025762        27.9124 
 290   0.0000       1.033859        28.1327 
 291   0.0000       1.039845        28.2956 
 292   0.0000       1.040880        28.3238 
 293   0.0000       1.045356        28.4456 
 294   0.0000       1.049460        28.5573 
 295   0.0000       1.052309        28.6348 
 296   0.0000       1.056802        28.7571 
 297   0.0000       1.058895        28.8140 
 298   0.0000       1.064283        28.9606 
 299   0.0000       1.066545        29.0222 
 300   0.0000       1.073241        29.2044 
 301   0.0000       1.076827        29.3020 
 302   0.0000       1.079802        29.3829 
 303   0.0000       1.083286        29.4777 
 304   0.0000       1.085888        29.5485 
 305   0.0000       1.098501        29.8917 
 306   0.0000       1.103347        30.0236 
 307   0.0000       1.108640        30.1676 
 308   0.0000       1.110311        30.2131 
 309   0.0000       1.115029        30.3415 
 310   0.0000       1.116766        30.3888 
 311   0.0000       1.120517        30.4908 
 312   0.0000       1.126030        30.6408 
 313   0.0000       1.128189        30.6996 
 314   0.0000       1.133616        30.8472 
 315   0.0000       1.135410        30.8961 
 316   0.0000       1.138550        30.9815 
 317   0.0000       1.140689        31.0397 
 318   0.0000       1.146495        31.1977 
 319   0.0000       1.150940        31.3187 
 320   0.0000       1.159870        31.5617 
 321   0.0000       1.163259        31.6539 
 322   0.0000       1.164280        31.6817 
 323   0.0000       1.169947        31.8359 
 324   0.0000       1.174135        31.9498 
 325   0.0000       1.178094        32.0576 
 326   0.0000       1.189141        32.3582 
 327   0.0000       1.190186        32.3866 
 328   0.0000       1.196491        32.5582 
 329   0.0000       1.204980        32.7892 
 330   0.0000       1.208933        32.8967 
 331   0.0000       1.210278        32.9333 
 332   0.0000       1.212138        32.9839 
 333   0.0000       1.220273        33.2053 
 334   0.0000       1.222163        33.2567 
 335   0.0000       1.226107        33.3641 
 336   0.0000       1.230139        33.4738 
 337   0.0000       1.234496        33.5923 
 338   0.0000       1.238716        33.7072 
 339   0.0000       1.242486        33.8098 
 340   0.0000       1.252013        34.0690 
 341   0.0000       1.255631        34.1674 
 342   0.0000       1.256142        34.1814 
 343   0.0000       1.262520        34.3549 
 344   0.0000       1.268413        34.5153 
 345   0.0000       1.275005        34.6946 
 346   0.0000       1.277089        34.7514 
 347   0.0000       1.285146        34.9706 
 348   0.0000       1.293386        35.1948 
 349   0.0000       1.295329        35.2477 
 350   0.0000       1.297283        35.3009 
 351   0.0000       1.306021        35.5386 
 352   0.0000       1.308781        35.6137 
 353   0.0000       1.314212        35.7615 
 354   0.0000       1.320580        35.9348 
 355   0.0000       1.332074        36.2476 
 356   0.0000       1.337170        36.3862 
 357   0.0000       1.340540        36.4779 
 358   0.0000       1.346341        36.6358 
 359   0.0000       1.349542        36.7229 
 360   0.0000       1.352942        36.8154 
 361   0.0000       1.356465        36.9113 
 362   0.0000       1.360311        37.0159 
 363   0.0000       1.363833        37.1118 
 364   0.0000       1.368050        37.2265 
 365   0.0000       1.376667        37.4610 
 366   0.0000       1.379297        37.5326 
 367   0.0000       1.386667        37.7331 
 368   0.0000       1.400629        38.1131 
 369   0.0000       1.402777        38.1715 
 370   0.0000       1.411677        38.4137 
 371   0.0000       1.421593        38.6835 
 372   0.0000       1.427437        38.8425 
 373   0.0000       1.432163        38.9711 
 374   0.0000       1.437202        39.1082 
 375   0.0000       1.446144        39.3516 
 376   0.0000       1.453516        39.5522 
 377   0.0000       1.455619        39.6094 
 378   0.0000       1.460115        39.7318 
 379   0.0000       1.466654        39.9097 
 380   0.0000       1.476547        40.1789 
 381   0.0000       1.483992        40.3815 
 382   0.0000       1.485926        40.4341 
 383   0.0000       1.494693        40.6727 
 384   0.0000       1.500209        40.8228 
 385   0.0000       1.500872        40.8408 
 386   0.0000       1.506834        41.0030 
 387   0.0000       1.519459        41.3466 
 388   0.0000       1.520927        41.3865 
 389   0.0000       1.526538        41.5392 
 390   0.0000       1.529807        41.6282 
 391   0.0000       1.545126        42.0450 
 392   0.0000       1.552177        42.2369 
 393   0.0000       1.554935        42.3119 
 394   0.0000       1.561062        42.4786 
 395   0.0000       1.569340        42.7039 
 396   0.0000       1.577252        42.9192 
 397   0.0000       1.579988        42.9937 
 398   0.0000       1.589990        43.2658 
 399   0.0000       1.594731        43.3948 
 400   0.0000       1.602304        43.6009 
 401   0.0000       1.607692        43.7475 
 402   0.0000       1.612105        43.8676 
 403   0.0000       1.617430        44.0125 
 404   0.0000       1.627159        44.2772 
 405   0.0000       1.632899        44.4334 
 406   0.0000       1.636218        44.5237 
 407   0.0000       1.642654        44.6989 
 408   0.0000       1.653061        44.9821 
 409   0.0000       1.659500        45.1573 
 410   0.0000       1.665666        45.3251 
 411   0.0000       1.674317        45.5605 
 412   0.0000       1.679230        45.6942 
 413   0.0000       1.688941        45.9584 
 414   0.0000       1.693014        46.0693 
 415   0.0000       1.698857        46.2282 
 416   0.0000       1.709920        46.5293 
 417   0.0000       1.714385        46.6508 
 418   0.0000       1.724730        46.9323 
 419   0.0000       1.728450        47.0335 
 420   0.0000       1.733950        47.1832 
 421   0.0000       1.743802        47.4513 
 422   0.0000       1.751723        47.6668 
 423   0.0000       1.752445        47.6865 
 424   0.0000       1.763793        47.9952 
 425   0.0000       1.767376        48.0927 
 426   0.0000       1.772004        48.2187 
 427   0.0000       1.791563        48.7509 
 428   0.0000       1.798719        48.9456 
 429   0.0000       1.802854        49.0581 
 430   0.0000       1.813819        49.3565 
 431   0.0000       1.821042        49.5531 
 432   0.0000       1.827072        49.7172 
 433   0.0000       1.834469        49.9184 
 434   0.0000       1.845144        50.2089 
 435   0.0000       1.852166        50.4000 
 436   0.0000       1.862463        50.6802 
 437   0.0000       1.872597        50.9560 
 438   0.0000       1.876091        51.0510 
 439   0.0000       1.881673        51.2029 
 440   0.0000       1.887892        51.3722 
 441   0.0000       1.895344        51.5749 
 442   0.0000       1.899224        51.6805 
 443   0.0000       1.900102        51.7044 
 444   0.0000       1.908245        51.9260 
 445   0.0000       1.923602        52.3439 
 446   0.0000       1.932533        52.5869 
 447   0.0000       1.940873        52.8138 
 448   0.0000       1.942790        52.8660 
 449   0.0000       1.950442        53.0742 
 450   0.0000       1.966694        53.5165 
 451   0.0000       1.967642        53.5423 
 452   0.0000       1.984895        54.0117 
 453   0.0000       1.994923        54.2846 
 454   0.0000       1.997145        54.3451 
 455   0.0000       2.010871        54.7186 
 456   0.0000       2.016775        54.8792 
 457   0.0000       2.021012        54.9945 
 458   0.0000       2.028513        55.1987 
 459   0.0000       2.034379        55.3583 
 460   0.0000       2.040952        55.5371 
 461   0.0000       2.049220        55.7621 
 462   0.0000       2.053231        55.8713 
 463   0.0000       2.061865        56.1062 
 464   0.0000       2.066553        56.2338 
 465   0.0000       2.076130        56.4944 
 466   0.0000       2.082237        56.6606 
 467   0.0000       2.094455        56.9930 
 468   0.0000       2.103173        57.2302 
 469   0.0000       2.109929        57.4141 
 470   0.0000       2.118854        57.6570 
 471   0.0000       2.126141        57.8552 
 472   0.0000       2.131518        58.0016 
 473   0.0000       2.135594        58.1125 
 474   0.0000       2.141236        58.2660 
 475   0.0000       2.155798        58.6622 
 476   0.0000       2.159638        58.7667 
 477   0.0000       2.164611        58.9020 
 478   0.0000       2.176208        59.2176 
 479   0.0000       2.179421        59.3050 
 480   0.0000       2.183854        59.4257 
 481   0.0000       2.192815        59.6695 
 482   0.0000       2.194458        59.7142 
 483   0.0000       2.203527        59.9610 
 484   0.0000       2.212091        60.1941 
 485   0.0000       2.219515        60.3961 
 486   0.0000       2.228113        60.6300 
 487   0.0000       2.235115        60.8206 
 488   0.0000       2.241166        60.9852 
 489   0.0000       2.250568        61.2411 
 490   0.0000       2.264716        61.6261 
 491   0.0000       2.267035        61.6892 
 492   0.0000       2.274734        61.8987 
 493   0.0000       2.285652        62.1958 
 494   0.0000       2.288014        62.2600 
 495   0.0000       2.293761        62.4164 
 496   0.0000       2.298883        62.5558 
 497   0.0000       2.314503        62.9808 
 498   0.0000       2.318310        63.0844 
 499   0.0000       2.321920        63.1827 
 500   0.0000       2.333502        63.4978 
 501   0.0000       2.338125        63.6236 
 502   0.0000       2.343672        63.7746 
 503   0.0000       2.354718        64.0751 
 504   0.0000       2.361780        64.2673 
 505   0.0000       2.367595        64.4255 
 506   0.0000       2.371150        64.5223 
 507   0.0000       2.381860        64.8137 
 508   0.0000       2.399801        65.3019 
 509   0.0000       2.404439        65.4281 
 510   0.0000       2.414247        65.6950 
 511   0.0000       2.420321        65.8603 
 512   0.0000       2.422136        65.9097 
 513   0.0000       2.427904        66.0666 
 514   0.0000       2.436693        66.3058 
 515   0.0000       2.440828        66.4183 
 516   0.0000       2.442133        66.4538 
 517   0.0000       2.447298        66.5944 
 518   0.0000       2.453435        66.7614 
 519   0.0000       2.466995        67.1303 
 520   0.0000       2.476901        67.3999 
 521   0.0000       2.479489        67.4703 
 522   0.0000       2.487493        67.6881 
 523   0.0000       2.491789        67.8050 
 524   0.0000       2.496406        67.9306 
 525   0.0000       2.499004        68.0013 
 526   0.0000       2.506370        68.2018 
 527   0.0000       2.522472        68.6400 
 528   0.0000       2.528800        68.8121 
 529   0.0000       2.533979        68.9531 
 530   0.0000       2.538188        69.0676 
 531   0.0000       2.546456        69.2926 
 532   0.0000       2.549534        69.3763 
 533   0.0000       2.555976        69.5516 
 534   0.0000       2.562251        69.7224 
 535   0.0000       2.572459        70.0002 
 536   0.0000       2.583309        70.2954 
 537   0.0000       2.585497        70.3549 
 538   0.0000       2.593539        70.5738 
 539   0.0000       2.598747        70.7155 
 540   0.0000       2.614882        71.1546 
 541   0.0000       2.617094        71.2147 
 542   0.0000       2.624514        71.4167 
 543   0.0000       2.628727        71.5313 
 544   0.0000       2.637871        71.7801 
 545   0.0000       2.650468        72.1229 
 546   0.0000       2.652183        72.1696 
 547   0.0000       2.659825        72.3775 
 548   0.0000       2.665438        72.5302 
 549   0.0000       2.670404        72.6654 
 550   0.0000       2.686329        73.0987 
 551   0.0000       2.693983        73.3070 
 552   0.0000       2.704112        73.5826 
 553   0.0000       2.710772        73.7639 
 554   0.0000       2.721999        74.0694 
 555   0.0000       2.734008        74.3961 
 556   0.0000       2.741118        74.5896 
 557   0.0000       2.746263        74.7296 
 558   0.0000       2.753224        74.9190 
 559   0.0000       2.756148        74.9986 
 560   0.0000       2.766503        75.2804 
 561   0.0000       2.778706        75.6124 
 562   0.0000       2.782251        75.7089 
 563   0.0000       2.786392        75.8216 
 564   0.0000       2.806333        76.3642 
 565   0.0000       2.806675        76.3735 
 566   0.0000       2.821483        76.7765 
 567   0.0000       2.825892        76.8964 
 568   0.0000       2.831893        77.0597 
 569   0.0000       2.844234        77.3956 
 570   0.0000       2.851498        77.5932 
 571   0.0000       2.862039        77.8800 
 572   0.0000       2.871418        78.1353 
 573   0.0000       2.876229        78.2662 
 574   0.0000       2.884269        78.4849 
 575   0.0000       2.892055        78.6968 
 576   0.0000       2.908805        79.1526 
 577   0.0000       2.924354        79.5757 
 578   0.0000       2.937372        79.9300 
 579   0.0000       2.950771        80.2946 
 580   0.0000       2.951604        80.3172 
 581   0.0000       2.962537        80.6147 
 582   0.0000       2.966712        80.7283 
 583   0.0000       2.973307        80.9078 
 584   0.0000       2.980150        81.0940 
 585   0.0000       3.003134        81.7194 
 586   0.0000       3.011280        81.9411 
 587   0.0000       3.021838        82.2284 
 588   0.0000       3.025708        82.3337 
 589   0.0000       3.031058        82.4793 
 590   0.0000       3.045626        82.8757 
 591   0.0000       3.059769        83.2605 
 592   0.0000       3.076613        83.7189 
 593   0.0000       3.086124        83.9777 
 594   0.0000       3.094084        84.1943 
 595   0.0000       3.103406        84.4480 
 596   0.0000       3.123617        84.9979 
 597   0.0000       3.139550        85.4315 
 598   0.0000       3.152581        85.7861 
 599   0.0000       3.157705        85.9255 
 600   0.0000       3.174118        86.3721 
 601   0.0000       3.183878        86.6377 
 602   0.0000       3.195008        86.9406 
 603   0.0000       3.198418        87.0334 
 604   0.0000       3.208508        87.3079 
 605   0.0000       3.215902        87.5091 
 606   0.0000       3.225575        87.7724 
 607   0.0000       3.233505        87.9882 
 608   0.0000       3.253869        88.5423 
 609   0.0000       3.257119        88.6307 
 610   0.0000       3.260589        88.7251 
 611   0.0000       3.275583        89.1331 
 612   0.0000       3.283837        89.3578 
 613   0.0000       3.293258        89.6141 
 614   0.0000       3.298212        89.7489 
 615   0.0000       3.304457        89.9189 
 616   0.0000       3.313933        90.1767 
 617   0.0000       3.329068        90.5885 
 618   0.0000       3.343468        90.9804 
 619   0.0000       3.350799        91.1799 
 620   0.0000       3.364156        91.5433 
 621   0.0000       3.374703        91.8303 
 622   0.0000       3.377831        91.9155 
 623   0.0000       3.386260        92.1448 
 624   0.0000       3.392821        92.3234 
 625   0.0000       3.402030        92.5739 
 626   0.0000       3.405923        92.6799 
 627   0.0000       3.416441        92.9661 
 628   0.0000       3.432290        93.3973 
 629   0.0000       3.436494        93.5118 
 630   0.0000       3.446282        93.7781 
 631   0.0000       3.459198        94.1296 
 632   0.0000       3.473985        94.5319 
 633   0.0000       3.490116        94.9709 
 634   0.0000       3.496128        95.1345 
 635   0.0000       3.507703        95.4494 
 636   0.0000       3.516041        95.6763 
 637   0.0000       3.528248        96.0085 
 638   0.0000       3.528380        96.0121 
 639   0.0000       3.544034        96.4381 
 640   0.0000       3.562614        96.9437 
 641   0.0000       3.568831        97.1128 
 642   0.0000       3.578606        97.3788 
 643   0.0000       3.585866        97.5764 
 644   0.0000       3.613080        98.3169 
 645   0.0000       3.619081        98.4802 
 646   0.0000       3.630264        98.7845 
 647   0.0000       3.637407        98.9789 
 648   0.0000       3.644526        99.1726 
 649   0.0000       3.657282        99.5197 
 650   0.0000       3.664235        99.7089 
 651   0.0000       3.682524       100.2066 
 652   0.0000       3.692168       100.4690 
 653   0.0000       3.697868       100.6241 
 654   0.0000       3.703992       100.7908 
 655   0.0000       3.714984       101.0898 
 656   0.0000       3.719976       101.2257 
 657   0.0000       3.747227       101.9672 
 658   0.0000       3.754362       102.1614 
 659   0.0000       3.758439       102.2723 
 660   0.0000       3.766779       102.4993 
 661   0.0000       3.767784       102.5266 
 662   0.0000       3.798328       103.3578 
 663   0.0000       3.806044       103.5677 
 664   0.0000       3.809216       103.6540 
 665   0.0000       3.816332       103.8477 
 666   0.0000       3.835193       104.3609 
 667   0.0000       3.840808       104.5137 
 668   0.0000       3.856516       104.9411 
 669   0.0000       3.861986       105.0900 
 670   0.0000       3.878385       105.5362 
 671   0.0000       3.885248       105.7230 
 672   0.0000       3.901189       106.1568 
 673   0.0000       3.910178       106.4013 
 674   0.0000       3.915288       106.5404 
 675   0.0000       3.926585       106.8478 
 676   0.0000       3.938549       107.1734 
 677   0.0000       3.948269       107.4379 
 678   0.0000       3.954327       107.6027 
 679   0.0000       3.965749       107.9135 
 680   0.0000       3.971492       108.0698 
 681   0.0000       3.989954       108.5722 
 682   0.0000       4.000752       108.8660 
 683   0.0000       4.005193       108.9868 
 684   0.0000       4.019650       109.3802 
 685   0.0000       4.021527       109.4313 
 686   0.0000       4.031537       109.7037 
 687   0.0000       4.061160       110.5098 
 688   0.0000       4.074948       110.8850 
 689   0.0000       4.081354       111.0593 
 690   0.0000       4.089323       111.2761 
 691   0.0000       4.110679       111.8573 
 692   0.0000       4.124139       112.2235 
 693   0.0000       4.132237       112.4439 
 694   0.0000       4.142762       112.7303 
 695   0.0000       4.156801       113.1123 
 696   0.0000       4.170665       113.4896 
 697   0.0000       4.185556       113.8948 
 698   0.0000       4.202825       114.3647 
 699   0.0000       4.210311       114.5684 
 700   0.0000       4.219916       114.8298 
 701   0.0000       4.234300       115.2212 
 702   0.0000       4.242138       115.4344 
 703   0.0000       4.248467       115.6067 
 704   0.0000       4.265528       116.0709 
 705   0.0000       4.271447       116.2320 
 706   0.0000       4.287508       116.6690 
 707   0.0000       4.309817       117.2761 
 708   0.0000       4.313288       117.3705 
 709   0.0000       4.323686       117.6535 
 710   0.0000       4.343837       118.2018 
 711   0.0000       4.354477       118.4913 
 712   0.0000       4.358038       118.5883 
 713   0.0000       4.358676       118.6056 
 714   0.0000       4.376174       119.0817 
 715   0.0000       4.382416       119.2516 
 716   0.0000       4.401324       119.7661 
 717   0.0000       4.409482       119.9881 
 718   0.0000       4.415330       120.1472 
 719   0.0000       4.422292       120.3367 
 720   0.0000       4.433326       120.6369 
 721   0.0000       4.441436       120.8576 
 722   0.0000       4.460219       121.3687 
 723   0.0000       4.482328       121.9703 
 724   0.0000       4.484872       122.0396 
 725   0.0000       4.490163       122.1835 
 726   0.0000       4.508036       122.6699 
 727   0.0000       4.514040       122.8333 
 728   0.0000       4.520558       123.0106 
 729   0.0000       4.537975       123.4846 
 730   0.0000       4.561625       124.1281 
 731   0.0000       4.596938       125.0891 
 732   0.0000       4.608078       125.3922 
 733   0.0000       4.623760       125.8189 
 734   0.0000       4.630293       125.9967 
 735   0.0000       4.643862       126.3659 
 736   0.0000       4.658302       126.7588 
 737   0.0000       4.672342       127.1409 
 738   0.0000       4.677665       127.2857 
 739   0.0000       4.692637       127.6931 
 740   0.0000       4.706797       128.0785 
 741   0.0000       4.729821       128.7050 
 742   0.0000       4.734401       128.8296 
 743   0.0000       4.756279       129.4249 
 744   0.0000       4.760548       129.5411 
 745   0.0000       4.781455       130.1100 
 746   0.0000       4.794096       130.4540 
 747   0.0000       4.824805       131.2896 
 748   0.0000       4.838588       131.6647 
 749   0.0000       4.849323       131.9568 
 750   0.0000       4.863316       132.3376 
 751   0.0000       4.873792       132.6226 
 752   0.0000       4.877346       132.7193 
 753   0.0000       4.889597       133.0527 
 754   0.0000       4.903684       133.4360 
 755   0.0000       4.913664       133.7076 
 756   0.0000       4.921306       133.9155 
 757   0.0000       4.939619       134.4139 
 758   0.0000       4.951871       134.7473 
 759   0.0000       4.965287       135.1123 
 760   0.0000       4.979693       135.5043 
 761   0.0000       4.983648       135.6120 
 762   0.0000       4.997043       135.9765 
 763   0.0000       5.011798       136.3780 
 764   0.0000       5.020685       136.6198 
 765   0.0000       5.047369       137.3459 
 766   0.0000       5.072285       138.0239 
 767   0.0000       5.085171       138.3745 
 768   0.0000       5.092498       138.5739 
 769   0.0000       5.100832       138.8007 
 770   0.0000       5.109683       139.0415 
 771   0.0000       5.113886       139.1559 
 772   0.0000       5.146276       140.0373 
 773   0.0000       5.192320       141.2902 
 774   0.0000       5.197884       141.4416 
 775   0.0000       5.212055       141.8272 
 776   0.0000       5.224638       142.1696 
 777   0.0000       5.234547       142.4393 
 778   0.0000       5.251681       142.9055 
 779   0.0000       5.277139       143.5982 
 780   0.0000       5.286584       143.8553 
 781   0.0000       5.292947       144.0284 
 782   0.0000       5.315220       144.6345 
 783   0.0000       5.323579       144.8620 
 784   0.0000       5.329643       145.0269 
 785   0.0000       5.363190       145.9398 
 786   0.0000       5.371436       146.1642 
 787   0.0000       5.382102       146.4544 
 788   0.0000       5.394179       146.7831 
 789   0.0000       5.413234       147.3016 
 790   0.0000       5.429494       147.7440 
 791   0.0000       5.454519       148.4250 
 792   0.0000       5.478069       149.0658 
 793   0.0000       5.489607       149.3798 
 794   0.0000       5.514180       150.0485 
 795   0.0000       5.537831       150.6920 
 796   0.0000       5.562432       151.3615 
 797   0.0000       5.581066       151.8685 
 798   0.0000       5.595245       152.2544 
 799   0.0000       5.601476       152.4239 
 800   0.0000       5.615866       152.8155 
 801   0.0000       5.658639       153.9794 
 802   0.0000       5.691786       154.8814 
 803   0.0000       5.720662       155.6671 
 804   0.0000       5.750633       156.4827 
 805   0.0000       5.759538       156.7250 
 806   0.0000       5.769297       156.9906 
 807   0.0000       5.796308       157.7256 
[...]
      dxz     :     0.332147
      dyz     :     0.441747
      dx2y2   :     0.528142
      dxy     :     0.459557
      f0      :     0.142264  f :     1.174299
      f+1     :     0.138877
      f-1     :     0.151615
      f+2     :     0.179218
      f-2     :     0.136535
      f+3     :     0.225314
      f-3     :     0.200476
  8 C s       :     2.484035  s :     2.484035
      pz      :     0.849735  p :     2.275083
      px      :     0.859241
      py      :     0.566107
      dz2     :     0.194896  d :     0.755779
      dxz     :     0.264572
      dyz     :     0.114379
      dx2y2   :     0.101194
      dxy     :     0.080738
      f0      :     0.067028  f :     0.373048
      f+1     :     0.120013
      f-1     :     0.056788
      f+2     :     0.044229
      f-2     :     0.021028
      f+3     :     0.030469
      f-3     :     0.033494
  9 H s       :     0.638526  s :     0.638526
      pz      :     0.139409  p :     0.337551
      px      :     0.123705
      py      :     0.074437
      dz2     :     0.084585  d :     0.256272
      dxz     :     0.058831
      dyz     :     0.030335
      dx2y2   :     0.045273
      dxy     :     0.037249
 10 S s       :     4.501460  s :     4.501460
      pz      :     2.643569  p :     8.107092
      px      :     2.713455
      py      :     2.750068
      dz2     :     0.487298  d :     2.310223
      dxz     :     0.365562
      dyz     :     0.370252
      dx2y2   :     0.550595
      dxy     :     0.536514
      f0      :     0.138276  f :     1.233705
      f+1     :     0.147378
      f-1     :     0.121216
      f+2     :     0.139511
      f-2     :     0.134950
      f+3     :     0.186533
      f-3     :     0.365840
 11 O s       :     3.336589  s :     3.336589
      pz      :     1.485372  p :     4.400287
      px      :     1.476112
      py      :     1.438803
      dz2     :     0.036005  d :     0.224495
      dxz     :     0.025896
      dyz     :     0.041091
      dx2y2   :     0.057774
      dxy     :     0.063729
      f0      :     0.005528  f :     0.068318
      f+1     :     0.005470
      f-1     :     0.010560
      f+2     :     0.004770
      f-2     :     0.010957
      f+3     :     0.016093
      f-3     :     0.014941
 12 O s       :     3.313728  s :     3.313728
      pz      :     1.467572  p :     4.367290
      px      :     1.396255
      py      :     1.503463
      dz2     :     0.042800  d :     0.232977
      dxz     :     0.060444
      dyz     :     0.008073
      dx2y2   :     0.063606
      dxy     :     0.058054
      f0      :     0.006247  f :     0.070504
      f+1     :     0.015418
      f-1     :     0.001251
      f+2     :     0.012756
      f-2     :     0.003703
      f+3     :     0.015890
      f-3     :     0.015240
 13 N s       :     2.917623  s :     2.917623
      pz      :     1.155240  p :     3.366565
      px      :     1.070662
      py      :     1.140664
      dz2     :     0.046062  d :     0.325157
      dxz     :     0.023184
      dyz     :     0.054684
      dx2y2   :     0.112961
      dxy     :     0.088266
      f0      :     0.008052  f :     0.113713
      f+1     :     0.009621
      f-1     :     0.017473
      f+2     :     0.009879
      f-2     :     0.012647
      f+3     :     0.026632
      f-3     :     0.029408
 14 H s       :     0.676102  s :     0.676102
      pz      :     0.179614  p :     0.579424
      px      :     0.231778
      py      :     0.168032
      dz2     :     0.034140  d :     0.367119
      dxz     :     0.116304
      dyz     :     0.007784
      dx2y2   :     0.077319
      dxy     :     0.131572
 15 N s       :     2.784006  s :     2.784006
      pz      :     1.040705  p :     3.075192
      px      :     1.138638
      py      :     0.895848
      dz2     :     0.150345  d :     0.561638
      dxz     :     0.180166
      dyz     :     0.104906
      dx2y2   :     0.066807
      dxy     :     0.059413
      f0      :     0.032753  f :     0.212348
      f+1     :     0.080056
      f-1     :     0.032855
      f+2     :     0.018720
      f-2     :     0.012581
      f+3     :     0.017725
      f-3     :     0.017657
 16 C s       :     2.489558  s :     2.489558
      pz      :     0.819828  p :     2.198683
      px      :     0.805390
      py      :     0.573465
      dz2     :     0.260047  d :     0.973262
      dxz     :     0.224294
      dyz     :     0.058056
      dx2y2   :     0.209665
      dxy     :     0.221201
      f0      :     0.040969  f :     0.476649
      f+1     :     0.152563
      f-1     :     0.011940
      f+2     :     0.071646
      f-2     :     0.082902
      f+3     :     0.059551
      f-3     :     0.057079
 17 N s       :     2.687412  s :     2.687412
      pz      :     0.991067  p :     3.121887
      px      :     1.014516
      py      :     1.116304
      dz2     :     0.134137  d :     0.580419
      dxz     :     0.188876
      dyz     :     0.086525
      dx2y2   :     0.093320
      dxy     :     0.077561
      f0      :     0.029240  f :     0.204118
      f+1     :     0.058593
      f-1     :     0.026378
      f+2     :     0.028410
      f-2     :     0.020971
      f+3     :     0.020904
      f-3     :     0.019623
 18 O s       :     3.327491  s :     3.327491
      pz      :     1.429706  p :     4.317519
      px      :     1.430726
      py      :     1.457087
      dz2     :     0.035429  d :     0.218575
      dxz     :     0.043893
      dyz     :     0.033732
      dx2y2   :     0.050685
      dxy     :     0.054836
      f0      :     0.006538  f :     0.072052
      f+1     :     0.010629
      f-1     :     0.005867
      f+2     :     0.007750
      f-2     :     0.015508
      f+3     :     0.012118
      f-3     :     0.013641
 19 O s       :     3.330576  s :     3.330576
      pz      :     1.451231  p :     4.324086
      px      :     1.471803
      py      :     1.401052
      dz2     :     0.025554  d :     0.217936
      dxz     :     0.009392
      dyz     :     0.056698
      dx2y2   :     0.067597
      dxy     :     0.058695
      f0      :     0.007465  f :     0.071635
      f+1     :     0.001372
      f-1     :     0.011162
      f+2     :     0.010769
      f-2     :     0.004939
      f+3     :     0.017344
      f-3     :     0.018584
 20 H s       :     0.681434  s :     0.681434
      pz      :     0.139285  p :     0.284279
      px      :     0.076117
      py      :     0.068876
      dz2     :     0.061154  d :     0.215391
      dxz     :     0.077755
      dyz     :     0.055988
      dx2y2   :     0.010329
      dxy     :     0.010164
 21 H s       :     0.604781  s :     0.604781
      pz      :     0.129580  p :     0.419613
      px      :     0.157625
      py      :     0.132408
      dz2     :     0.063349  d :     0.304253
      dxz     :     0.073237
      dyz     :     0.037952
      dx2y2   :     0.059194
      dxy     :     0.070521


                      *****************************
                      * MAYER POPULATION ANALYSIS *
                      *****************************

  NA   - Mulliken gross atomic population
  ZA   - Total nuclear charge
  QA   - Mulliken gross atomic charge
  VA   - Mayer's total valence
  BVA  - Mayer's bonded valence
  FA   - Mayer's free valence

  ATOM       NA         ZA         QA         VA         BVA        FA
  0 C      6.0071     6.0000    -0.0071     4.7448     4.7448    -0.0000
  1 C      5.4497     6.0000     0.5503     3.0238     3.0238     0.0000
  2 Cl    17.4922    17.0000    -0.4922     0.5156     0.5156     0.0000
  3 C      6.3342     6.0000    -0.3342     1.8715     1.8715    -0.0000
  4 H      0.4764     1.0000     0.5236     0.6053     0.6053    -0.0000
  5 C      5.0270     6.0000     0.9730     1.6990     1.6990    -0.0000
  6 C      5.4712     6.0000     0.5288     3.1704     3.1704     0.0000
  7 S     14.1035    16.0000     1.8965     4.2882     4.2882     0.0000
  8 C      7.2736     6.0000    -1.2736     2.1873     2.1873    -0.0000
  9 H      0.6070     1.0000     0.3930     0.8862     0.8862     0.0000
 10 S     13.8667    16.0000     2.1333     4.5946     4.5946    -0.0000
 11 O      9.0334     8.0000    -1.0334     1.3891     1.3891    -0.0000
 12 O      9.0051     8.0000    -1.0051     1.3328     1.3328     0.0000
 13 N      8.1093     7.0000    -1.1093     2.4955     2.4955     0.0000
 14 H      0.8668     1.0000     0.1332     1.0705     1.0705     0.0000
 15 N      7.5324     7.0000    -0.5324     1.7625     1.7625    -0.0000
 16 C      6.7983     6.0000    -0.7983     3.2419     3.2419     0.0000
 17 N      7.2468     7.0000    -0.2468     3.1340     3.1340     0.0000
 18 O      8.9245     8.0000    -0.9245     1.4400     1.4400    -0.0000
 19 O      8.9966     8.0000    -0.9966     1.5846     1.5846     0.0000
 20 H      0.3831     1.0000     0.6169     0.5713     0.5713     0.0000
 21 H      0.9951     1.0000     0.0049     1.2121     1.2121    -0.0000

  Mayer bond orders larger than 0.100000
B(  0-C ,  1-C ) :   1.5527 B(  0-C ,  2-Cl) :   0.5239 B(  0-C ,  3-C ) :  -0.1906 
B(  0-C ,  6-C ) :   0.2498 B(  0-C ,  8-C ) :   1.3121 B(  0-C ,  9-H ) :   0.1346 
B(  0-C , 10-S ) :   0.7317 B(  0-C , 12-O ) :   0.1297 B(  0-C , 13-N ) :   0.2508 
B(  1-C ,  2-Cl) :   0.1562 B(  1-C ,  3-C ) :   1.1526 B(  3-C ,  4-H ) :   0.5980 
B(  3-C ,  5-C ) :   0.8609 B(  3-C ,  8-C ) :  -0.1708 B(  3-C , 15-N ) :  -0.1827 
B(  5-C ,  6-C ) :   1.2183 B(  5-C ,  7-S ) :   0.1335 B(  5-C , 15-N ) :  -0.1290 
B(  5-C , 16-C ) :  -0.2994 B(  6-C ,  7-S ) :   0.8138 B(  6-C ,  8-C ) :   0.3557 
B(  6-C , 15-N ) :   0.1417 B(  6-C , 18-O ) :   0.3227 B(  7-S , 17-N ) :   0.8729 
B(  7-S , 18-O ) :   1.2237 B(  7-S , 19-O ) :   1.3248 B(  8-C ,  9-H ) :   0.6707 
B( 10-S , 11-O ) :   1.1711 B( 10-S , 12-O ) :   1.1915 B( 10-S , 13-N ) :   1.3123 
B( 11-O , 13-N ) :   0.1085 B( 13-N , 14-H ) :   0.9132 B( 15-N , 16-C ) :   1.9250 
B( 16-C , 17-N ) :   1.0369 B( 16-C , 20-H ) :   0.4967 B( 17-N , 19-O ) :   0.1402 
B( 17-N , 21-H ) :   1.0437 

-------
TIMINGS
-------

Total SCF time: 0 days 0 hours 4 min 22 sec 

Total time                  ....     262.268 sec
Sum of individual times     ....     259.729 sec  ( 99.0%)

Fock matrix formation       ....     250.942 sec  ( 95.7%)
  Split-RI-J                ....      15.641 sec  (  6.2% of F)
  Chain of spheres X        ....     206.013 sec  ( 82.1% of F)
  XC integration            ....      28.084 sec  ( 11.2% of F)
    Basis function eval.    ....       4.085 sec  ( 14.5% of XC)
    Density eval.           ....      10.116 sec  ( 36.0% of XC)
    XC-Functional eval.     ....       0.253 sec  (  0.9% of XC)
    XC-Potential eval.      ....      10.082 sec  ( 35.9% of XC)
Diagonalization             ....       1.717 sec  (  0.7%)
Density matrix formation    ....       0.167 sec  (  0.1%)
Population analysis         ....       0.175 sec  (  0.1%)
Initial guess               ....       1.560 sec  (  0.6%)
Orbital Transformation      ....       0.000 sec  (  0.0%)
Orbital Orthonormalization  ....       0.000 sec  (  0.0%)
DIIS solution               ....       0.885 sec  (  0.3%)
SOSCF solution              ....       1.432 sec  (  0.5%)
Grid generation             ....       2.850 sec  (  1.1%)

Maximum memory used throughout the entire SCF-calculation: 215.3 MB


           ************************************************************
           *        Program running with 8 parallel MPI-processes     *
           *              working on a common directory               *
           ************************************************************

------------------------------------------------------------------------------
                                ORCA  MP2 
------------------------------------------------------------------------------

Freezing NCore=58 chemical core electrons

   <<< Use J-auxbasis for calculation of Separable RI-J derivative contributions (Dim=894) >>> 


-------------
RI-MP2 ENERGY
-------------
Dimension of the basis                    ...  909
Memory devoted to MP2                     ... 3000 MB   
Data format for buffers                   ... DOUBLE
Compression type for matrix containers    ... UNCOMPRESSED
Scaling for aa/bb pairs                   ...   2.500e-01
Scaling for ab pairs                      ...   5.300e-01
Overall scaling of the MP2 energy         ...   1.000e+00
Calculating two index integrals           ... done (    0.047 sec)
Cholesky decomposition of V**-1           ... done (    0.420 sec)

-----------------
RI-TRANSFORMATION (AUX index driven)
-----------------

Dimension of the orbital-basis         ... 909
Dimension of the aux-basis             ... 2155
Transformation of internal/external MOs...   29-  74 to   75- 908
Number Format for Storage              ... Double (8 Byte)
Integral mode                          ... Direct

First Phase: integral generation and transformation of MO indices
  Aux angular momentum 0               ... done (    0.552 sec)
  Aux angular momentum 1               ... done (    1.016 sec)
  Aux angular momentum 2               ... done (    1.627 sec)
  Aux angular momentum 3               ... done (    1.360 sec)
  Aux angular momentum 4               ... done (    0.801 sec)
Closing buffer VIA ( 0.62 GB; CompressionRatio= 1.00)
  Phase 1 completed in     5.575 sec
Second Phase: sorting and transformation of aux index

IA-Transformation
Memory available                       ... 2898 MB 
Max. # MO pairs treated in a batch     ... 6    
# of internal orbitals                 ... 46
# batches for internal orbitals        ... 1
Closing buffer IAV ( 0.62 GB; CompressionRatio= 1.00)
(ia|v) transformation done in     1.598 sec

  Phase 2 completed in     1.758 sec
RI-Integral transformation completed in     7.337 sec
Opening buffers                              ... done

Starting loop over batches of integrals:

Operator 0  - window                       ... ( 29- 74)x( 75-908)
Operator 0  - Memory available             ...  3000 MB
Operator 0  - Memory needed per MO         ...  13.7 MB
Operator 0  - Number of orbitals per batch ... 6
Operator 0  - Number of batches            ... 1

OPERATOR  0   PASS   0:  MOs    29 ...   34 +   35 ...   40 +   41 ...   46 +   47 ...   52
                            +   53 ...   58 +   59 ...   64 +   65 ...   70 +   71 ...   74
  Reading integrals       ... ok
  Internal MO  31
  Internal MO  34
Time spent in pair loops =     1.218 sec
Deleting buffer (Ka|jb)[aa] ...done

-----------------------------------------------
 RI-MP2 CORRELATION ENERGY:     -1.692319457 Eh
-----------------------------------------------


-------
TIMINGS
-------

Total time                :   21.858 sec
Integral trafo            :    7.351 sec ( 33.6%)
I/O of integrals          :    0.044 sec (  0.2%)
K(i,j) Operators          :    0.973 sec (  4.5%)
T(i,j) pair energies      :    0.119 sec (  0.5%)
V-calculation             :    0.047 sec (  0.2%)
V**(-1/2)                 :    0.420 sec (  1.9%)
Gamma(ia|P)               :    0.000 sec (  0.0%)
Gamma-Trafo               :    0.000 sec (  0.0%)
D(virtual)                :    0.000 sec (  0.0%)
D(internal)               :    0.000 sec (  0.0%)
W(virtual)                :    0.000 sec (  0.0%)
W(internal)               :    0.000 sec (  0.0%)
L(virtual)                :    0.000 sec (  0.0%)
L(internal)               :    0.000 sec (  0.0%)
G(D)                      :    0.000 sec (  0.0%)
G(Z)                      :    0.000 sec (  0.0%)
Z-Vector Solution         :    0.000 sec (  0.0%)
3-Index Derivative        :    0.000 sec (  0.0%)
2-Index Derivative        :    0.000 sec (  0.0%)
Separable Gradient (RIJ)  :    0.000 sec (  0.0%)
Separable Gradient (COSX) :    0.000 sec (  0.0%)


---------------------------------------
MP2 TOTAL ENERGY:    -1989.678199449 Eh
---------------------------------------

Maximum memory used throughout the entire MP2-calculation: 258.5 MB


-------------------------------------------------------------------------------
                          DFT DISPERSION CORRECTION                            
                                                                               
                              DFTD3 V3.1  Rev 1                                
                          USING Becke-Johnson damping                          
-------------------------------------------------------------------------------
The DSD-PBEP86 functional is recognized
Active option DFTDOPT                   ...         4   

molecular C6(AA) [au] = 10421.053560 


            DFT-D V3
 parameters
 s6 scaling factor         :     0.4180 
 a1 scaling factor         :     0.0000 
 s8 scaling factor         :     0.0000 
 a2 scaling factor         :     5.6500 
 ad hoc parameters k1-k3   :    16.0000     1.3333    -4.0000 

 Edisp/kcal,au: -14.118040404991  -0.022498527086 
 E6   /kcal   : -14.118040405 
 E8   /kcal   :  -0.000000000 
 % E8         :   0.000000000 

-------------------------   ----------------
Dispersion correction           -0.022498527
-------------------------   ----------------


-------------------------   --------------------
FINAL SINGLE POINT ENERGY     -1989.700697976261
-------------------------   --------------------


                            ***************************************
                            *     ORCA property calculations      *
                            ***************************************


  WARNING: The energy has been calculated at the MP2 level but the densities
           used in the property calculations are still SCF densities
           MP2 response densities have not been calculated 
           use %mp2 Density relaxed end
           or  %mp2 Density unrelaxed end

                                    ---------------------
                                    Active property flags
                                    ---------------------
   (+) Dipole Moment


------------------------------------------------------------------------------
                       ORCA ELECTRIC PROPERTIES CALCULATION
------------------------------------------------------------------------------

Dipole Moment Calculation                       ... on
Quadrupole Moment Calculation                   ... off
Polarizability Calculation                      ... off
GBWName                                         ... A.31.avtz.gbw
Electron density                                ... A.31.avtz.scfp
The origin for moment calculation is the CENTER OF MASS  = (-1.544672,  0.964089 -3.496988)

-------------
DIPOLE MOMENT
-------------
                                X             Y             Z
Electronic contribution:     -4.61510      -1.85895       1.27756
Nuclear contribution   :      5.00202       1.97457      -6.81352
                        -----------------------------------------
Total Dipole Moment    :      0.38692       0.11562      -5.53596
                        -----------------------------------------
Magnitude (a.u.)       :      5.55067
Magnitude (Debye)      :     14.10868



--------------------
Rotational spectrum 
--------------------
 
Rotational constants in cm-1:     0.022210     0.008011     0.006355 
Rotational constants in MHz :   665.842136   240.171198   190.512983 

 Dipole components along the rotational axes: 
x,y,z [a.u.] :    -4.572228     3.100941    -0.537429 
x,y,z [Debye]:   -11.621681     7.881966    -1.366035 

 

Timings for individual modules:

Sum of individual times         ...      290.868 sec (=   4.848 min)
GTO integral calculation        ...        3.522 sec (=   0.059 min)   1.2 %
SCF iterations                  ...      263.764 sec (=   4.396 min)  90.7 %
MP2 module                      ...       23.582 sec (=   0.393 min)   8.1 %
                             ****ORCA TERMINATED NORMALLY****
TOTAL RUN TIME: 0 days 0 hours 4 minutes 53 seconds 648 msec
