
                                 *****************
                                 * O   R   C   A *
                                 *****************

                                            #,                                       
                                            ###                                      
                                            ####                                     
                                            #####                                    
                                            ######                                   
                                           ########,                                 
                                     ,,################,,,,,                         
                               ,,#################################,,                 
                          ,,##########################################,,             
                       ,#########################################, ''#####,          
                    ,#############################################,,   '####,        
                  ,##################################################,,,,####,       
                ,###########''''           ''''###############################       
              ,#####''   ,,,,##########,,,,          '''####'''          '####       
            ,##' ,,,,###########################,,,                        '##       
           ' ,,###''''                  '''############,,,                           
         ,,##''                                '''############,,,,        ,,,,,,###''
      ,#''                                            '''#######################'''  
     '                                                          ''''####''''         
             ,#######,   #######,   ,#######,      ##                                
            ,#'     '#,  ##    ##  ,#'     '#,    #''#        ######   ,####,        
            ##       ##  ##   ,#'  ##            #'  '#       #        #'  '#        
            ##       ##  #######   ##           ,######,      #####,   #    #        
            '#,     ,#'  ##    ##  '#,     ,#' ,#      #,         ##   #,  ,#        
             '#######'   ##     ##  '#######'  #'      '#     #####' # '####'        



                  #######################################################
                  #                        -***-                        #
                  #          Department of theory and spectroscopy      #
                  #    Directorship and core code : Frank Neese         #
                  #        Max Planck Institute fuer Kohlenforschung    #
                  #                Kaiser Wilhelm Platz 1               #
                  #                 D-45470 Muelheim/Ruhr               #
                  #                      Germany                        #
                  #                                                     #
                  #                  All rights reserved                #
                  #                        -***-                        #
                  #######################################################


                         Program Version 5.0.3 -  RELEASE  -


 With contributions from (in alphabetic order):
   Daniel Aravena         : Magnetic Suceptibility
   Michael Atanasov       : Ab Initio Ligand Field Theory (pilot matlab implementation)
   Alexander A. Auer      : GIAO ZORA, VPT2 properties, NMR spectrum
   Ute Becker             : Parallelization
   Giovanni Bistoni       : ED, misc. LED, open-shell LED, HFLD
   Martin Brehm           : Molecular dynamics
   Dmytro Bykov           : SCF Hessian
   Vijay G. Chilkuri      : MRCI spin determinant printing, contributions to CSF-ICE
   Dipayan Datta          : RHF DLPNO-CCSD density
   Achintya Kumar Dutta   : EOM-CC, STEOM-CC
   Dmitry Ganyushin       : Spin-Orbit,Spin-Spin,Magnetic field MRCI
   Miquel Garcia          : C-PCM and meta-GGA Hessian, CC/C-PCM, Gaussian charge scheme
   Yang Guo               : DLPNO-NEVPT2, F12-NEVPT2, CIM, IAO-localization
   Andreas Hansen         : Spin unrestricted coupled pair/coupled cluster methods
   Benjamin Helmich-Paris : MC-RPA, TRAH-SCF, COSX integrals
   Lee Huntington         : MR-EOM, pCC
   Robert Izsak           : Overlap fitted RIJCOSX, COSX-SCS-MP3, EOM
   Marcus Kettner         : VPT2
   Christian Kollmar      : KDIIS, OOCD, Brueckner-CCSD(T), CCSD density, CASPT2, CASPT2-K
   Simone Kossmann        : Meta GGA functionals, TD-DFT gradient, OOMP2, MP2 Hessian
   Martin Krupicka        : Initial AUTO-CI
   Lucas Lang             : DCDCAS
   Marvin Lechner         : AUTO-CI (C++ implementation), FIC-MRCC
   Dagmar Lenk            : GEPOL surface, SMD
   Dimitrios Liakos       : Extrapolation schemes; Compound Job, initial MDCI parallelization
   Dimitrios Manganas     : Further ROCIS development; embedding schemes
   Dimitrios Pantazis     : SARC Basis sets
   Anastasios Papadopoulos: AUTO-CI, single reference methods and gradients
   Taras Petrenko         : DFT Hessian,TD-DFT gradient, ASA, ECA, R-Raman, ABS, FL, XAS/XES, NRVS
   Peter Pinski           : DLPNO-MP2, DLPNO-MP2 Gradient
   Christoph Reimann      : Effective Core Potentials
   Marius Retegan         : Local ZFS, SOC
   Christoph Riplinger    : Optimizer, TS searches, QM/MM, DLPNO-CCSD(T), (RO)-DLPNO pert. Triples
   Tobias Risthaus        : Range-separated hybrids, TD-DFT gradient, RPA, STAB
   Michael Roemelt        : Original ROCIS implementation
   Masaaki Saitow         : Open-shell DLPNO-CCSD energy and density
   Barbara Sandhoefer     : DKH picture change effects
   Avijit Sen             : IP-ROCIS
   Kantharuban Sivalingam : CASSCF convergence, NEVPT2, FIC-MRCI
   Bernardo de Souza      : ESD, SOC TD-DFT
   Georgi Stoychev        : AutoAux, RI-MP2 NMR, DLPNO-MP2 response
   Willem Van den Heuvel  : Paramagnetic NMR
   Boris Wezisla          : Elementary symmetry handling
   Frank Wennmohs         : Technical directorship


 We gratefully acknowledge several colleagues who have allowed us to
 interface, adapt or use parts of their codes:
   Stefan Grimme, W. Hujo, H. Kruse, P. Pracht,  : VdW corrections, initial TS optimization,
                  C. Bannwarth, S. Ehlert          DFT functionals, gCP, sTDA/sTD-DF
   Ed Valeev, F. Pavosevic, A. Kumar             : LibInt (2-el integral package), F12 methods
   Garnet Chan, S. Sharma, J. Yang, R. Olivares  : DMRG
   Ulf Ekstrom                                   : XCFun DFT Library
   Mihaly Kallay                                 : mrcc  (arbitrary order and MRCC methods)
   Jiri Pittner, Ondrej Demel                    : Mk-CCSD
   Frank Weinhold                                : gennbo (NPA and NBO analysis)
   Christopher J. Cramer and Donald G. Truhlar   : smd solvation model
   Lars Goerigk                                  : TD-DFT with DH, B97 family of functionals
   V. Asgeirsson, H. Jonsson                     : NEB implementation
   FAccTs GmbH                                   : IRC, NEB, NEB-TS, DLPNO-Multilevel, CI-OPT
                                                   MM, QMMM, 2- and 3-layer-ONIOM, Crystal-QMMM,
                                                   LR-CPCM, SF, NACMEs, symmetry and pop. for TD-DFT,
                                                   nearIR, NL-DFT gradient (VV10), updates on ESD,
                                                   ML-optimized integration grids
   S Lehtola, MJT Oliveira, MAL Marques          : LibXC Library
   Liviu Ungur et al                             : ANISO software


 Your calculation uses the libint2 library for the computation of 2-el integrals
 For citations please refer to: http://libint.valeyev.net

 Your ORCA version has been built with support for libXC version: 5.1.0
 For citations please refer to: https://tddft.org/programs/libxc/

 This ORCA versions uses:
   CBLAS   interface :  Fast vector & matrix operations
   LAPACKE interface :  Fast linear algebra routines
   SCALAPACK package :  Parallel linear algebra routines
   Shared memory     :  Shared parallel matrices
   BLAS/LAPACK       :  OpenBLAS 0.3.15  USE64BITINT DYNAMIC_ARCH NO_AFFINITY SkylakeX SINGLE_THREADED
        Core in use  :  SkylakeX
   Copyright (c) 2011-2014, The OpenBLAS Project


Your calculation utilizes the atom-pairwise dispersion correction
with the Becke-Johnson damping scheme (D3BJ)
Cite in your paper:
S.Grimme, S.Ehrlich, L.Goerigk, J Comput Chem, (2011), 32, 1456–1465 
S.Grimme, J.Antony, S.Ehrlich and H.Krieg, J.Chem.Phys., 132, (2010), 154104 
   

================================================================================

----- Orbital basis set information -----
Your calculation utilizes the basis: aug-cc-pVTZ 
    H, B-Ne : Obtained from the ccRepo (grant-hill.group.shef.ac.uk/ccrepo) Feb. 2017
              R. A. Kendall, T. H. Dunning, Jr., R. J. Harrison, J. Chem. Phys. 96, 6796 (1992)
         He : Obtained from the ccRepo (grant-hill.group.shef.ac.uk/ccrepo) Feb. 2017
              D. E. Woon, T. H. Dunning, Jr., J. Chem. Phys. 100, 2975 (1994)
  Li-Be, Na : Obtained from the ccRepo (grant-hill.group.shef.ac.uk/ccrepo) Feb. 2017
              B. P. Prascher, D. E. Woon, K. A. Peterson, T. H. Dunning, Jr., A. K. Wilson, Theor. Chem. Acc. 128, 69 (2011)
         Mg : Obtained from the Peterson Research Group Website (tyr0.chem.wsu.edu/~kipeters) Feb. 2017
              B. P. Prascher, D. E. Woon, K. A. Peterson, T. H. Dunning, Jr., A. K. Wilson, Theor. Chem. Acc. 128, 69 (2011)
      Al-Ar : Obtained from the ccRepo (grant-hill.group.shef.ac.uk/ccrepo) Feb. 2017
              D. E. Woon, T. H. Dunning, Jr., J. Chem. Phys. 98, 1358 (1993)
      Sc-Zn : Obtained from the ccRepo (grant-hill.group.shef.ac.uk/ccrepo) Feb. 2017
              N. B. Balabanov, K. A. Peterson, J. Chem. Phys. 123, 064107 (2005)
              N. B. Balabanov, K. A. Peterson, J. Chem. Phys. 125, 074110 (2006)
      Ga-Kr : Obtained from the ccRepo (grant-hill.group.shef.ac.uk/ccrepo) Feb. 2017
              A. K. Wilson, D. E. Woon, K. A. Peterson, T. H. Dunning, Jr., J. Chem. Phys. 110, 7667 (1999)
     Ag, Au : Obtained from the Peterson Research Group Website (tyr0.chem.wsu.edu/~kipeters) Feb. 2017
              K. A. Peterson, C. Puzzarini, Theor. Chem. Acc. 114, 283 (2005)

----- AuxJ basis set information -----
Your calculation utilizes the auxiliary basis: def2/J
   F. Weigend, Phys. Chem. Chem. Phys. 8, 1057 (2006).

----- AuxC basis set information -----
Your calculation utilizes the auxiliary basis: aug-cc-pVTZ/C 
  H-He, B-F, Al-Ar, Ga-Kr : Obtained from the EMSL Basis Set Exchange (bse.pnl.gov) Feb. 2017
                            F. Weigend, A. Kohn, C. Hattig, J. Chem. Phys. 116, 3175 (2002)
                   Be, Mg : Obtained from the TURBOMOLE 7.0 basis set library
                            C. Haettig, Phys. Chem. Chem. Phys. 7, 59 (2005)
                       Ne : Obtained from the EMSL Basis Set Exchange (bse.pnl.gov) Feb. 2017
                            C. Haettig, Phys. Chem. Chem. Phys. 7, 59 (2005)
                            F. Weigend, A. Kohn, C. Hattig, J. Chem. Phys. 116, 3175 (2002)
                    Sc-Zn : Obtained from the EMSL Basis Set Exchange (bse.pnl.gov) Feb. 2017
                            J. G. Hill, J. A. Platts, J. Chem. Phys. 128, 044104 (2008)

================================================================================
                                        WARNINGS
                       Please study these warnings very carefully!
================================================================================


WARNING: No MP2 level density has been requested!
         To caclulate MP2 level properties use
         %mp2 Density relaxed end
         or
         %mp2 Density unrelaxed end
         Otherwise for double-hybrid DFT only the energy is correct!

WARNING: There are different parametrizations of Gershom Martin's DSD-DFs
         for use with and without D3(BJ)!
         You are using the D3(BJ) parametrized version,
         consistent with the GMTKN55 benchmark (L. Goerigk et al., PCCP 2017, 19, 32184)

WARNING: The frozen-core approximation is turned on by default for 
         the MP2 part of double-hybrid DFT.

INFO   : the flag for use of the SHARK integral package has been found!

================================================================================
                                       INPUT FILE
================================================================================
NAME = A.33.avtz.com
|  1> !PAL8
|  2> !RI-DSD-PBEP86 D3BJ aug-cc-pVTZ aug-cc-pVTZ/C TightSCF
|  3> %maxcore 3000
|  4> 
|  5> 
|  6> * xyz -1 1
|  7> C -1.6079318277  1.0573011726 -0.8970921244
|  8> C -2.7375422001  0.5483655325 -1.5606651465
|  9> C -4.0986042189  0.4180161015 -0.9032611478
| 10> C -2.669833898  0.1571240095 -2.8983470221
| 11> H -3.5535662616 -0.2288498019 -3.3967129187
| 12> C -1.4730931343  0.2486890029 -3.6049333811
| 13> C -0.3399786339  0.7581805427 -2.9551809924
| 14> C  0.9287423616  0.9118653623 -3.7145876796
| 15> C -0.4218633567  1.155656549 -1.6211566836
| 16> S -1.533776451  1.5498785819  0.8871520935
| 17> O -0.3022745507  2.3558937889  0.9067891242
| 18> O -2.8093027797  2.2799492315  1.0554555462
| 19> N -1.3647228244  0.2526675849  1.734562564
| 20> H -2.3038622428 -0.1119398618  1.8981931606
| 21> N -1.3973776903 -0.1155322193 -4.9621591249
| 22> C -0.0959002074 -0.6056889544 -5.3754121693
| 23> N  0.8833173808  0.3955881094 -4.9987631602
| 24> H -2.1392587616 -0.7565425127 -5.2302685997
| 25> F -4.90332865 -0.4112261102 -1.6294290586
| 26> F -4.7573727348  1.5795967971 -0.8353580971
| 27> F -4.0541647784 -0.1179829357  0.3201247634
| 28> H  1.7911599912  0.3551289228 -5.4486709563
| 29> C -0.0590804444 -0.811264281 -6.892457183
| 30> C -1.0830446501 -1.8192198646 -7.3510072161
| 31> C -0.8362837933 -3.1914398415 -7.2321297247
| 32> H  0.1224953901 -3.5290483859 -6.8434121945
| 33> C -1.8010616936 -4.1250862867 -7.6038966828
| 34> H -1.5927200404 -5.1864679443 -7.503259762
| 35> C -3.0319845316 -3.6979603767 -8.1015769574
| 36> H -3.7860257047 -4.4245906632 -8.3898014007
| 37> C -3.2897095386 -2.3338730968 -8.2241756201
| 38> H -4.246700578 -1.9920057835 -8.6080603567
| 39> C -2.3210941779 -1.4024986349 -7.8508611101
| 40> H -2.5251106083 -0.3378582549 -7.9401543398
| 41> H  0.1302265785 -1.5701897071 -4.8753901866
| 42> H  0.9481397996 -1.1489318455 -7.168248959
| 43> H -0.234239286  0.1626850364 -7.3609450878
| 44> O  1.9273532013  1.4714148152 -3.296686983
| 45> H  0.4546005459  1.5670142216 -1.1284652257
| 46> *
| 47> 
| 48>                          ****END OF INPUT****
================================================================================

                       ****************************
                       * Single Point Calculation *
                       ****************************

---------------------------------
CARTESIAN COORDINATES (ANGSTROEM)
---------------------------------
  C     -1.607932    1.057301   -0.897092
  C     -2.737542    0.548366   -1.560665
  C     -4.098604    0.418016   -0.903261
  C     -2.669834    0.157124   -2.898347
  H     -3.553566   -0.228850   -3.396713
  C     -1.473093    0.248689   -3.604933
  C     -0.339979    0.758181   -2.955181
  C      0.928742    0.911865   -3.714588
  C     -0.421863    1.155657   -1.621157
  S     -1.533776    1.549879    0.887152
  O     -0.302275    2.355894    0.906789
  O     -2.809303    2.279949    1.055456
  N     -1.364723    0.252668    1.734563
  H     -2.303862   -0.111940    1.898193
  N     -1.397378   -0.115532   -4.962159
  C     -0.095900   -0.605689   -5.375412
  N      0.883317    0.395588   -4.998763
  H     -2.139259   -0.756543   -5.230269
  F     -4.903329   -0.411226   -1.629429
  F     -4.757373    1.579597   -0.835358
  F     -4.054165   -0.117983    0.320125
  H      1.791160    0.355129   -5.448671
  C     -0.059080   -0.811264   -6.892457
  C     -1.083045   -1.819220   -7.351007
  C     -0.836284   -3.191440   -7.232130
  H      0.122495   -3.529048   -6.843412
  C     -1.801062   -4.125086   -7.603897
  H     -1.592720   -5.186468   -7.503260
  C     -3.031985   -3.697960   -8.101577
  H     -3.786026   -4.424591   -8.389801
  C     -3.289710   -2.333873   -8.224176
  H     -4.246701   -1.992006   -8.608060
  C     -2.321094   -1.402499   -7.850861
  H     -2.525111   -0.337858   -7.940154
  H      0.130227   -1.570190   -4.875390
  H      0.948140   -1.148932   -7.168249
  H     -0.234239    0.162685   -7.360945
  O      1.927353    1.471415   -3.296687
  H      0.454601    1.567014   -1.128465

----------------------------
CARTESIAN COORDINATES (A.U.)
----------------------------
  NO LB      ZA    FRAG     MASS         X           Y           Z
   0 C     6.0000    0    12.011   -3.038551    1.998010   -1.695258
   1 C     6.0000    0    12.011   -5.173205    1.036261   -2.949230
   2 C     6.0000    0    12.011   -7.745240    0.789936   -1.706916
   3 C     6.0000    0    12.011   -5.045255    0.296921   -5.477082
   4 H     1.0000    0     1.008   -6.715267   -0.432463   -6.418857
   5 C     6.0000    0    12.011   -2.783743    0.469954   -6.812337
   6 C     6.0000    0    12.011   -0.642467    1.432754   -5.584483
   7 C     6.0000    0    12.011    1.755069    1.723176   -7.019553
   8 C     6.0000    0    12.011   -0.797206    2.183874   -3.063542
   9 S    16.0000    0    32.060   -2.898417    2.928846    1.676474
  10 O     8.0000    0    15.999   -0.571216    4.451994    1.713583
  11 O     8.0000    0    15.999   -5.308813    4.308480    1.994522
  12 N     7.0000    0    14.007   -2.578952    0.477473    3.277848
  13 H     1.0000    0     1.008   -4.353669   -0.211536    3.587065
  14 N     7.0000    0    14.007   -2.640661   -0.218324   -9.377122
  15 C     6.0000    0    12.011   -0.181225   -1.144586  -10.158057
  16 N     7.0000    0    14.007    1.669228    0.747553   -9.446293
  17 H     1.0000    0     1.008   -4.042613   -1.429658   -9.883775
  18 F     9.0000    0    18.998   -9.265948   -0.777105   -3.079175
  19 F     9.0000    0    18.998   -8.990132    2.985005   -1.578598
  20 F     9.0000    0    18.998   -7.661261   -0.222955    0.604948
  21 H     1.0000    0     1.008    3.384802    0.671096  -10.296496
  22 C     6.0000    0    12.011   -0.111646   -1.533067  -13.024856
  23 C     6.0000    0    12.011   -2.046658   -3.437827  -13.891390
  24 C     6.0000    0    12.011   -1.580347   -6.030947  -13.666745
  25 H     1.0000    0     1.008    0.231483   -6.668935  -12.932175
  26 C     6.0000    0    12.011   -3.403513   -7.795283  -14.369282
  27 H     1.0000    0     1.008   -3.009805   -9.801004  -14.179106
  28 C     6.0000    0    12.011   -5.729620   -6.988132  -15.309762
  29 H     1.0000    0     1.008   -7.154552   -8.361265  -15.854427
  30 C     6.0000    0    12.011   -6.216650   -4.410381  -15.541440
  31 H     1.0000    0     1.008   -8.025101   -3.764345  -16.266877
  32 C     6.0000    0    12.011   -4.386232   -2.650338  -14.835977
  33 H     1.0000    0     1.008   -4.771768   -0.638460  -15.004717
  34 H     1.0000    0     1.008    0.246093   -2.967229   -9.213152
  35 H     1.0000    0     1.008    1.791725   -2.171167  -13.546027
  36 H     1.0000    0     1.008   -0.442648    0.307430  -13.910170
  37 O     8.0000    0    15.999    3.642170    2.780571   -6.229836
  38 H     1.0000    0     1.008    0.859071    2.961228   -2.132490

--------------------------------
INTERNAL COORDINATES (ANGSTROEM)
--------------------------------
 C      0   0   0     0.000000000000     0.00000000     0.00000000
 C      1   0   0     1.405476515228     0.00000000     0.00000000
 C      2   1   0     1.517122543069   123.20049836     0.00000000
 C      2   1   3     1.395366311691   121.00726278   178.46309965
 H      4   2   1     1.085507826068   120.02129420   180.32868215
 C      4   2   1     1.392780272061   120.63776104     0.70943149
 C      6   4   2     1.402037184516   118.89563806   359.13565365
 C      7   6   4     1.486596954377   119.37816239   182.44735462
 C      1   2   3     1.393090694771   117.67494054   181.49398834
 S      1   2   3     1.852473738857   125.67616896     4.13860496
 O     10   1   2     1.471952124674   101.06627308   196.32759778
 O     10   1   2     1.479289228246   101.90540904   316.95566891
 N     10   1   2     1.558666097956   107.86015093    79.84103402
 H     13  10   1     1.020635297021   106.53944978   274.06719741
 N      6   4   2     1.407285204496   121.23096283   181.36806472
 C     15   6   4     1.450818852292   114.23073072   209.25462259
 N      8   7   6     1.384814895832   114.02750510   353.97116564
 H     15   6   4     1.016446954187   112.23061958   337.43887027
 F      3   2   1     1.364750486481   110.52609600   196.03257282
 F      3   2   1     1.337107510347   112.91513082    78.33912423
 F      3   2   1     1.336391753744   113.66000952   314.10858378
 H     17   8   7     1.014017838122   113.38773841   190.23218196
 C     16  15   6     1.531353154385   110.43245942   186.98852716
 C     23  16  15     1.508225873641   111.99862006   299.46741495
 C     24  23  16     1.399289263667   120.65198362   280.05370100
 H     25  24  23     1.088273113726   119.33608308   357.39783851
 C     25  24  23     1.393091078385   120.82600480   177.36562252
 H     27  25  24     1.086307993792   119.81984078   180.09614219
 C     27  25  24     1.394737692840   120.07852799   359.97612737
 H     29  27  25     1.086113711222   120.16722226   180.13495563
 C     29  27  25     1.393623592838   119.62703351     0.00000000
 H     31  29  27     1.086311465644   120.13497474   180.18021804
 C     31  29  27     1.394646130257   120.11123254     0.00000000
 H     33  31  29     1.087683374641   120.09443647   180.42615425
 H     16  15   6     1.109692303498   110.37083917    66.45330661
 H     23  16  15     1.097530458688   108.19809340   178.13488327
 H     23  16  15     1.094869311653   107.49552634    61.45147225
 O      8   7   6     1.218589427012   124.86624809   171.79039522
 H      9   1   2     1.086346620584   118.54924309   178.70610992

---------------------------
INTERNAL COORDINATES (A.U.)
---------------------------
 C      0   0   0     0.000000000000     0.00000000     0.00000000
 C      1   0   0     2.655965701438     0.00000000     0.00000000
 C      2   1   0     2.866946117999   123.20049836     0.00000000
 C      2   1   3     2.636860185595   121.00726278   178.46309965
 H      4   2   1     2.051312507497   120.02129420   180.32868215
 C      4   2   1     2.631973278924   120.63776104     0.70943149
 C      6   4   2     2.649466308309   118.89563806   359.13565365
 C      7   6   4     2.809261115293   119.37816239   182.44735462
 C      1   2   3     2.632559892831   117.67494054   181.49398834
 S      1   2   3     3.500668036721   125.67616896     4.13860496
 O     10   1   2     2.781586397877   101.06627308   196.32759778
 O     10   1   2     2.795451514245   101.90540904   316.95566891
 N     10   1   2     2.945452059365   107.86015093    79.84103402
 H     13  10   1     1.928721193983   106.53944978   274.06719741
 N      6   4   2     2.659383628818   121.23096283   181.36806472
 C     15   6   4     2.741650300762   114.23073072   209.25462259
 N      8   7   6     2.616920899296   114.02750510   353.97116564
 H     15   6   4     1.920806373071   112.23061958   337.43887027
 F      3   2   1     2.579004660585   110.52609600   196.03257282
 F      3   2   1     2.526767006165   112.91513082    78.33912423
 F      3   2   1     2.525414422206   113.66000952   314.10858378
 H     17   8   7     1.916216008962   113.38773841   190.23218196
 C     16  15   6     2.893838076105   110.43245942   186.98852716
 C     23  16  15     2.850133849276   111.99862006   299.46741495
 C     24  23  16     2.644273490467   120.65198362   280.05370100
 H     25  24  23     2.056538143851   119.33608308   357.39783851
 C     25  24  23     2.632560617757   120.82600480   177.36562252
 H     27  25  24     2.052824605356   119.81984078   180.09614219
 C     27  25  24     2.635672268125   120.07852799   359.97612737
 H     29  27  25     2.052457464507   120.16722226   180.13495563
 C     29  27  25     2.633566924235   119.62703351     0.00000000
 H     31  29  27     2.052831166205   120.13497474   180.18021804
 C     31  29  27     2.635499239918   120.11123254     0.00000000
 H     33  31  29     2.055423698490   120.09443647   180.42615425
 H     16  15   6     2.097014546532   110.37083917    66.45330661
 H     23  16  15     2.074031990557   108.19809340   178.13488327
 H     23  16  15     2.069003151458   107.49552634    61.45147225
 O      8   7   6     2.302800286745   124.86624809   171.79039522
 H      9   1   2     2.052897599416   118.54924309   178.70610992

---------------------
BASIS SET INFORMATION
---------------------
There are 6 groups of distinct atoms

 Group   1 Type C   : 19s6p3d2f contracted to 5s4p3d2f pattern {88111/3111/111/11}
 Group   2 Type H   : 6s3p2d contracted to 4s3p2d pattern {3111/111/11}
 Group   3 Type S   : 42s17p3d2f contracted to 6s5p3d2f pattern {131313111/77111/111/11}
 Group   4 Type O   : 19s6p3d2f contracted to 5s4p3d2f pattern {88111/3111/111/11}
 Group   5 Type N   : 19s6p3d2f contracted to 5s4p3d2f pattern {88111/3111/111/11}
 Group   6 Type F   : 19s6p3d2f contracted to 5s4p3d2f pattern {88111/3111/111/11}

Atom   0C    basis set group =>   1
Atom   1C    basis set group =>   1
Atom   2C    basis set group =>   1
Atom   3C    basis set group =>   1
Atom   4H    basis set group =>   2
Atom   5C    basis set group =>   1
Atom   6C    basis set group =>   1
Atom   7C    basis set group =>   1
Atom   8C    basis set group =>   1
Atom   9S    basis set group =>   3
Atom  10O    basis set group =>   4
Atom  11O    basis set group =>   4
Atom  12N    basis set group =>   5
Atom  13H    basis set group =>   2
Atom  14N    basis set group =>   5
Atom  15C    basis set group =>   1
Atom  16N    basis set group =>   5
Atom  17H    basis set group =>   2
Atom  18F    basis set group =>   6
Atom  19F    basis set group =>   6
Atom  20F    basis set group =>   6
Atom  21H    basis set group =>   2
Atom  22C    basis set group =>   1
Atom  23C    basis set group =>   1
Atom  24C    basis set group =>   1
Atom  25H    basis set group =>   2
Atom  26C    basis set group =>   1
Atom  27H    basis set group =>   2
Atom  28C    basis set group =>   1
Atom  29H    basis set group =>   2
Atom  30C    basis set group =>   1
Atom  31H    basis set group =>   2
Atom  32C    basis set group =>   1
Atom  33H    basis set group =>   2
Atom  34H    basis set group =>   2
Atom  35H    basis set group =>   2
Atom  36H    basis set group =>   2
Atom  37O    basis set group =>   4
Atom  38H    basis set group =>   2
---------------------------------
AUXILIARY/J BASIS SET INFORMATION
---------------------------------
There are 6 groups of distinct atoms

 Group   1 Type C   : 12s5p4d2f1g contracted to 6s4p3d1f1g pattern {711111/2111/211/2/1}
 Group   2 Type H   : 5s2p1d contracted to 3s1p1d pattern {311/2/1}
 Group   3 Type S   : 14s5p5d2f1g contracted to 8s4p3d1f1g pattern {71111111/2111/311/2/1}
 Group   4 Type O   : 12s5p4d2f1g contracted to 6s4p3d1f1g pattern {711111/2111/211/2/1}
 Group   5 Type N   : 12s5p4d2f1g contracted to 6s4p3d1f1g pattern {711111/2111/211/2/1}
 Group   6 Type F   : 12s5p4d2f1g contracted to 6s4p3d1f1g pattern {711111/2111/211/2/1}

Atom   0C    basis set group =>   1
Atom   1C    basis set group =>   1
Atom   2C    basis set group =>   1
Atom   3C    basis set group =>   1
Atom   4H    basis set group =>   2
Atom   5C    basis set group =>   1
Atom   6C    basis set group =>   1
Atom   7C    basis set group =>   1
Atom   8C    basis set group =>   1
Atom   9S    basis set group =>   3
Atom  10O    basis set group =>   4
Atom  11O    basis set group =>   4
Atom  12N    basis set group =>   5
Atom  13H    basis set group =>   2
Atom  14N    basis set group =>   5
Atom  15C    basis set group =>   1
Atom  16N    basis set group =>   5
Atom  17H    basis set group =>   2
Atom  18F    basis set group =>   6
Atom  19F    basis set group =>   6
Atom  20F    basis set group =>   6
Atom  21H    basis set group =>   2
Atom  22C    basis set group =>   1
Atom  23C    basis set group =>   1
Atom  24C    basis set group =>   1
Atom  25H    basis set group =>   2
Atom  26C    basis set group =>   1
Atom  27H    basis set group =>   2
Atom  28C    basis set group =>   1
Atom  29H    basis set group =>   2
Atom  30C    basis set group =>   1
Atom  31H    basis set group =>   2
Atom  32C    basis set group =>   1
Atom  33H    basis set group =>   2
Atom  34H    basis set group =>   2
Atom  35H    basis set group =>   2
Atom  36H    basis set group =>   2
Atom  37O    basis set group =>   4
Atom  38H    basis set group =>   2
---------------------------------
AUXILIARY/C BASIS SET INFORMATION
---------------------------------
There are 6 groups of distinct atoms

 Group   1 Type C   : 9s7p6d4f2g contracted to 9s7p6d4f2g pattern {111111111/1111111/111111/1111/11}
 Group   2 Type H   : 5s4p3d2f contracted to 5s4p3d2f pattern {11111/1111/111/11}
 Group   3 Type S   : 11s9p8d6f3g contracted to 11s9p8d6f3g pattern {11111111111/111111111/11111111/111111/111}
 Group   4 Type O   : 9s7p6d4f2g contracted to 9s7p6d4f2g pattern {111111111/1111111/111111/1111/11}
 Group   5 Type N   : 9s7p6d4f2g contracted to 9s7p6d4f2g pattern {111111111/1111111/111111/1111/11}
 Group   6 Type F   : 9s7p6d4f2g contracted to 9s7p6d4f2g pattern {111111111/1111111/111111/1111/11}

Atom   0C    basis set group =>   1
Atom   1C    basis set group =>   1
Atom   2C    basis set group =>   1
Atom   3C    basis set group =>   1
Atom   4H    basis set group =>   2
Atom   5C    basis set group =>   1
Atom   6C    basis set group =>   1
Atom   7C    basis set group =>   1
Atom   8C    basis set group =>   1
Atom   9S    basis set group =>   3
Atom  10O    basis set group =>   4
Atom  11O    basis set group =>   4
Atom  12N    basis set group =>   5
Atom  13H    basis set group =>   2
Atom  14N    basis set group =>   5
Atom  15C    basis set group =>   1
Atom  16N    basis set group =>   5
Atom  17H    basis set group =>   2
Atom  18F    basis set group =>   6
Atom  19F    basis set group =>   6
Atom  20F    basis set group =>   6
Atom  21H    basis set group =>   2
Atom  22C    basis set group =>   1
Atom  23C    basis set group =>   1
Atom  24C    basis set group =>   1
Atom  25H    basis set group =>   2
Atom  26C    basis set group =>   1
Atom  27H    basis set group =>   2
Atom  28C    basis set group =>   1
Atom  29H    basis set group =>   2
Atom  30C    basis set group =>   1
Atom  31H    basis set group =>   2
Atom  32C    basis set group =>   1
Atom  33H    basis set group =>   2
Atom  34H    basis set group =>   2
Atom  35H    basis set group =>   2
Atom  36H    basis set group =>   2
Atom  37O    basis set group =>   4
Atom  38H    basis set group =>   2


           ************************************************************
           *        Program running with 8 parallel MPI-processes     *
           *              working on a common directory               *
           ************************************************************
------------------------------------------------------------------------------
                           ORCA GTO INTEGRAL CALCULATION
                           -- RI-GTO INTEGRALS CHOSEN --
------------------------------------------------------------------------------
------------------------------------------------------------------------------
                   ___                                                        
                  /   \      - P O W E R E D   B Y -                         
                 /     \                                                     
                 |  |  |   _    _      __       _____    __    __             
                 |  |  |  | |  | |    /  \     |  _  \  |  |  /  |          
                  \  \/   | |  | |   /    \    | | | |  |  | /  /          
                 / \  \   | |__| |  /  /\  \   | |_| |  |  |/  /          
                |  |  |   |  __  | /  /__\  \  |    /   |      \           
                |  |  |   | |  | | |   __   |  |    \   |  |\   \          
                \     /   | |  | | |  |  |  |  | |\  \  |  | \   \       
                 \___/    |_|  |_| |__|  |__|  |_| \__\ |__|  \__/        
                                                                              
                      - O R C A' S   B I G   F R I E N D -                    
                                      &                                       
                       - I N T E G R A L  F E E D E R -                       
                                                                              
 v1 FN, 2020, v2 2021                                                         
------------------------------------------------------------------------------


Reading SHARK input file A.33.avtz.SHARKINP.tmp ... ok
----------------------
SHARK INTEGRAL PACKAGE
----------------------

Number of atoms                             ...     39
Number of basis functions                   ...   1674
Number of shells                            ...    648
Maximum angular momentum                    ...      3
Integral batch strategy                     ... SHARK/LIBINT Hybrid
RI-J (if used) integral strategy            ... SPLIT-RIJ (Revised 2003 algorithm where possible)
Printlevel                                  ...      1
Contraction scheme used                     ... PARTIAL GENERAL contraction
Coulomb Range Separation                    ... NOT USED
Exchange Range Separation                   ... NOT USED
Finite Nucleus Model                        ... NOT USED
Auxiliary Coulomb fitting basis             ... AVAILABLE
   # of basis functions in Aux-J            ...   1419
   # of shells in Aux-J                     ...    457
   Maximum angular momentum in Aux-J        ...      4
Auxiliary J/K fitting basis                 ... NOT available
Auxiliary Correlation fitting basis         ... AVAILABLE
   # of basis functions in Aux-C            ...   3395
   # of shells in Aux-C                     ...    919
   Maximum angular momentum in Aux-C        ...      4
Auxiliary 'external' fitting basis          ... NOT available
Integral threshold                          ...     2.500000e-11
Primitive cut-off                           ...     2.500000e-12
Primitive pair pre-selection threshold      ...     2.500000e-12

Calculating pre-screening integrals         ... done (  0.1 sec) Dimension = 648
Calculating pre-screening integrals (ORCA)  ... done (  0.4 sec) Dimension = 483
Organizing shell pair data                  ... done (  1.3 sec)
Shell pair information
Total number of shell pairs                 ...    210276
Shell pairs after pre-screening             ...    128343
Total number of primitive shell pairs       ...    262564
Primitive shell pairs kept                  ...    146600
          la=0 lb=0:  27999 shell pairs
          la=1 lb=0:  33509 shell pairs
          la=1 lb=1:   8767 shell pairs
          la=2 lb=0:  21822 shell pairs
          la=2 lb=1:  11712 shell pairs
          la=2 lb=2:   3978 shell pairs
          la=3 lb=0:  10161 shell pairs
          la=3 lb=1:   5681 shell pairs
          la=3 lb=2:   3778 shell pairs
          la=3 lb=3:    936 shell pairs

Calculating one electron integrals          ... done (  0.3 sec)
Calculating RI/J V-Matrix + Cholesky decomp.... done (  0.1 sec)
Calculating RI/C V-Matrix + Cholesky decomp.... done (  0.6 sec)
Calculating Nuclear repulsion               ... done (  0.0 sec) ENN=   2538.004816668222 Eh

SHARK setup successfully completed in   4.1 seconds

Maximum memory used throughout the entire GTOINT-calculation: 169.9 MB


           ************************************************************
           *        Program running with 8 parallel MPI-processes     *
           *              working on a common directory               *
           ************************************************************
-------------------------------------------------------------------------------
                                 ORCA SCF
-------------------------------------------------------------------------------

------------
SCF SETTINGS
------------
Hamiltonian:
 Density Functional     Method          .... DFT(GTOs)
 Exchange Functional    Exchange        .... PBE
   PBE kappa parameter   XKappa         ....  0.804000
   PBE mue parameter    XMuePBE         ....  0.219520
 Correlation Functional Correlation     .... P86
 LDA part of GGA corr.  LDAOpt          .... VWN-5
 Gradients option       PostSCFGGA      .... off
 Hybrid DFT is turned on
   Fraction HF Exchange ScalHFX         ....  0.700000
   Scaling of DF-GGA-X  ScalDFX         ....  0.300000
   Scaling of DF-GGA-C  ScalDFC         ....  0.430000
   Scaling of DF-LDA-C  ScalLDAC        ....  0.430000
   Perturbative correction              ....  1.000000
   Density functional embedding theory  .... OFF
   NL short-range parameter             .... 14.200000
 RI-approximation to the Coulomb term is turned on
   Number of AuxJ basis functions       .... 1419
   RIJ-COSX (HFX calculated with COS-X)).... on


General Settings:
 Integral files         IntName         .... A.33.avtz
 Hartree-Fock type      HFTyp           .... RHF
 Total Charge           Charge          ....   -1
 Multiplicity           Mult            ....    1
 Number of Electrons    NEL             ....  198
 Basis Dimension        Dim             .... 1499
 Nuclear Repulsion      ENuc            ....   2538.0048166682 Eh

Convergence Acceleration:
 DIIS                   CNVDIIS         .... on
   Start iteration      DIISMaxIt       ....    12
   Startup error        DIISStart       ....  0.200000
   # of expansion vecs  DIISMaxEq       ....     5
   Bias factor          DIISBfac        ....   1.050
   Max. coefficient     DIISMaxC        ....  10.000
 Trust-Rad. Augm. Hess. CNVTRAH         .... auto
   Auto Start mean grad. ratio tolernc. ....  1.125000
   Auto Start start iteration           ....    20
   Auto Start num. interpolation iter.  ....    10
   Max. Number of Micro iterations      ....    16
   Max. Number of Macro iterations      .... Maxiter - #DIIS iter
   Number of Davidson start vectors     ....     2
   Converg. threshold I  (grad. norm)   ....   1.000e-05
   Converg. threshold II (energy diff.) ....   1.000e-08
   Grad. Scal. Fac. for Micro threshold ....   0.100
   Minimum threshold for Micro iter.    ....   0.010
   NR start threshold (gradient norm)   ....   0.001
   Initial trust radius                 ....   0.400
   Minimum AH scaling param. (alpha)    ....   1.000
   Maximum AH scaling param. (alpha)    .... 1000.000
   Orbital update algorithm             .... Taylor
   White noise on init. David. guess    .... on
   Maximum white noise                  ....   0.010
   Quad. conv. algorithm                .... NR
 SOSCF                  CNVSOSCF        .... on
   Start iteration      SOSCFMaxIt      ....   150
   Startup grad/error   SOSCFStart      ....  0.003300
 Level Shifting         CNVShift        .... on
   Level shift para.    LevelShift      ....    0.2500
   Turn off err/grad.   ShiftErr        ....    0.0010
 Zerner damping         CNVZerner       .... off
 Static damping         CNVDamp         .... on
   Fraction old density DampFac         ....    0.7000
   Max. Damping (<1)    DampMax         ....    0.9800
   Min. Damping (>=0)   DampMin         ....    0.0000
   Turn off err/grad.   DampErr         ....    0.1000
 Fernandez-Rico         CNVRico         .... off

SCF Procedure:
 Maximum # iterations   MaxIter         ....   125
 SCF integral mode      SCFMode         .... Direct
   Integral package                     .... SHARK and LIBINT hybrid scheme
 Reset frequency        DirectResetFreq ....    20
 Integral Threshold     Thresh          ....  2.500e-11 Eh
 Primitive CutOff       TCut            ....  2.500e-12 Eh

Convergence Tolerance:
 Convergence Check Mode ConvCheckMode   .... Total+1el-Energy
 Convergence forced     ConvForced      .... 0
 Energy Change          TolE            ....  1.000e-08 Eh
 1-El. energy change                    ....  1.000e-05 Eh
 Orbital Gradient       TolG            ....  1.000e-05
 Orbital Rotation angle TolX            ....  1.000e-05
 DIIS Error             TolErr          ....  5.000e-07


Diagonalization of the overlap matrix:
Smallest eigenvalue                        ... 6.913e-08
Time for diagonalization                   ...    0.291 sec
Threshold for overlap eigenvalues          ... 1.000e-08
Number of eigenvalues below threshold      ... 0
Time for construction of square roots      ...    0.205 sec
Total time needed                          ...    0.504 sec

Time for model grid setup =    0.466 sec

------------------------------
INITIAL GUESS: MODEL POTENTIAL
------------------------------
Loading Hartree-Fock densities                     ... done
Calculating cut-offs                               ... done
Initializing the effective Hamiltonian             ... done
Setting up the integral package (SHARK)            ... done
Starting the Coulomb interaction                   ... done (   2.1 sec)
Reading the grid                                   ... done
Mapping shells                                     ... done
Starting the XC term evaluation                    ... done (   1.6 sec)
  promolecular density results
     # of electrons  =    196.995111587
     EX              =   -184.797808155
     EC              =     -0.011255668
     EX+EC           =   -184.809063823
Transforming the Hamiltonian                       ... done (   0.1 sec)
Diagonalizing the Hamiltonian                      ... done (   0.3 sec)
Back transforming the eigenvectors                 ... done (   0.1 sec)
Now organizing SCF variables                       ... done
                      ------------------
                      INITIAL GUESS DONE (   4.8 sec)
                      ------------------
-------------------
DFT GRID GENERATION
-------------------

General Integration Accuracy     IntAcc      ... 4.388
Radial Grid Type                 RadialGrid  ... OptM3 with GC (2021)
Angular Grid (max. ang.)         AngularGrid ... 4 (Lebedev-302)
Angular grid pruning method      GridPruning ... 4 (adaptive)
Weight generation scheme         WeightScheme... Becke
Basis function cutoff            BFCut       ... 1.0000e-11
Integration weight cutoff        WCut        ... 1.0000e-14
Angular grids for H and He will be reduced by one unit
Partially contracted basis set               ... off
Rotationally invariant grid construction     ... off

Total number of grid points                  ...   207138
Total number of batches                      ...     3256
Average number of points per batch           ...       63
Average number of grid points per atom       ...     5311
Time for grid setup =    1.660 sec

--------------------
COSX GRID GENERATION
--------------------

GRIDX 1
-------
General Integration Accuracy     IntAcc      ... 3.816
Radial Grid Type                 RadialGrid  ... OptM3 with GC (2021)
Angular Grid (max. ang.)         AngularGrid ... 1 (Lebedev-50)
Angular grid pruning method      GridPruning ... 4 (adaptive)
Weight generation scheme         WeightScheme... Becke
Basis function cutoff            BFCut       ... 1.0000e-11
Integration weight cutoff        WCut        ... 1.0000e-14
Angular grids for H and He will be reduced by one unit
Partially contracted basis set               ... on
Rotationally invariant grid construction     ... off

Total number of grid points                  ...    25910
Total number of batches                      ...      427
Average number of points per batch           ...       60
Average number of grid points per atom       ...      664
UseSFitting                                  ... on

GRIDX 2
-------
General Integration Accuracy     IntAcc      ... 4.020
Radial Grid Type                 RadialGrid  ... OptM3 with GC (2021)
Angular Grid (max. ang.)         AngularGrid ... 2 (Lebedev-110)
Angular grid pruning method      GridPruning ... 4 (adaptive)
Weight generation scheme         WeightScheme... Becke
Basis function cutoff            BFCut       ... 1.0000e-11
Integration weight cutoff        WCut        ... 1.0000e-14
Angular grids for H and He will be reduced by one unit
Partially contracted basis set               ... on
Rotationally invariant grid construction     ... off

Total number of grid points                  ...    63252
Total number of batches                      ...     1010
Average number of points per batch           ...       62
Average number of grid points per atom       ...     1622
UseSFitting                                  ... on

GRIDX 3
-------
General Integration Accuracy     IntAcc      ... 4.338
Radial Grid Type                 RadialGrid  ... OptM3 with GC (2021)
Angular Grid (max. ang.)         AngularGrid ... 3 (Lebedev-194)
Angular grid pruning method      GridPruning ... 4 (adaptive)
Weight generation scheme         WeightScheme... Becke
Basis function cutoff            BFCut       ... 1.0000e-11
Integration weight cutoff        WCut        ... 1.0000e-14
Angular grids for H and He will be reduced by one unit
Partially contracted basis set               ... on
Rotationally invariant grid construction     ... off

Total number of grid points                  ...   139335
Total number of batches                      ...     2196
Average number of points per batch           ...       63
Average number of grid points per atom       ...     3573
UseSFitting                                  ... on

Time for X-Grid setup             =    5.130 sec

 re-compute Schwartz prescreening matrix in partically contracted basis (1) ...done (   0.171 sec)
--------------
SCF ITERATIONS
--------------
ITER       Energy         Delta-E        Max-DP      RMS-DP      [F,P]     Damp
               ***  Starting incremental Fock matrix formation  ***
  0  -1700.0051307534   0.000000000000 4.75561286  0.01703940  0.3324214 0.7000
  1  -1700.3225457484  -0.317414995010 4.28401718  0.01558239  0.1793280 0.7000
                               ***Turning on DIIS***
  2  -1700.4849546667  -0.16240891837911.04963866  0.04036539  0.0790181 0.0000
  3  -1700.7675549168  -0.282600250056 1.57154695  0.00626072  0.0829167 0.0000
  4  -1700.8031544818  -0.035599564954 0.87461012  0.00340949  0.0087143 0.0000
  5  -1700.8044125396  -0.001258057845 0.33968717  0.00213603  0.0072195 0.0000
                      *** Initiating the SOSCF procedure ***
                           *** Shutting down DIIS ***
                      *** Re-Reading the Fockian *** 
                      *** Removing any level shift *** 
ITER      Energy       Delta-E        Grad      Rot      Max-DP    RMS-DP
  6  -1700.80475332  -0.0003407816  0.000584  0.000584  0.185704  0.001283
               *** Restarting incremental Fock matrix formation ***
  7  -1700.80481284  -0.0000595168  0.000305  0.000804  4.427157  0.020631
  8  -1700.80487398  -0.0000611391  0.000156  0.000474  1.036005  0.003701
  9  -1700.80487697  -0.0000029939  0.000078  0.000165  0.300054  0.001397
 10  -1700.80487934  -0.0000023717  0.000020  0.000086  0.988931  0.003116
 11  -1700.80487907   0.0000002762  0.000010  0.000047  0.279058  0.001068
 12  -1700.80487919  -0.0000001230  0.000004  0.000014  0.227472  0.000984
                  ***Gradient check signals convergence***
              ***Rediagonalizing the Fockian in SOSCF/NRSCF***

               *****************************************************
               *                     SUCCESS                       *
               *           SCF CONVERGED AFTER  13 CYCLES          *
               *****************************************************

Old exchange energy                            =   -131.530355489 Eh
New exchange energy                            =   -131.530094400 Eh
Exchange energy change after final integration =      0.000261090 Eh
Total energy after final integration           =  -1700.804618493 Eh
Final COS-X integration done in                =   120.936 sec

----------------
TOTAL SCF ENERGY
----------------

Total Energy       :        -1700.80461849 Eh          -46281.24656 eV

Components:
Nuclear Repulsion  :         2538.00481667 Eh           69062.62214 eV
Electronic Energy  :        -4238.80943516 Eh         -115343.86870 eV
One Electron Energy:        -7407.78617756 Eh         -201576.10982 eV
Two Electron Energy:         3168.97674240 Eh           86232.24112 eV
Max COSX asymmetry :            0.00010591 Eh               0.00288 eV

Virial components:
Potential Energy   :        -3396.51481049 Eh          -92423.86673 eV
Kinetic Energy     :         1695.71019200 Eh           46142.62017 eV
Virial Ratio       :            2.00300430


DFT components:
N(Alpha)           :       98.999998236076 electrons
N(Beta)            :       98.999998236076 electrons
N(Total)           :      197.999996472151 electrons
E(X)               :      -56.188718639257 Eh       
E(C)               :       -3.269012059887 Eh       
E(XC)              :      -59.457730699144 Eh       
DFET-embed. en.    :        0.000000000000 Eh       

---------------
SCF CONVERGENCE
---------------

  Last Energy change         ...   -3.9337e-07  Tolerance :   1.0000e-08
  Last MAX-Density change    ...    7.1054e-15  Tolerance :   1.0000e-07
  Last RMS-Density change    ...    4.6766e-17  Tolerance :   5.0000e-09
  Last Orbital Gradient      ...    2.3045e-06  Tolerance :   1.0000e-05
  Last Orbital Rotation      ...    9.0635e-06  Tolerance :   1.0000e-05

             **** THE GBW FILE WAS UPDATED (A.33.avtz.gbw) ****
             **** DENSITY A.33.avtz.scfp WAS UPDATED ****
             **** ENERGY FILE WAS UPDATED (A.33.avtz.en.tmp) ****
             **** THE GBW FILE WAS UPDATED (A.33.avtz.gbw) ****
             **** DENSITY A.33.avtz.scfp WAS UPDATED ****
----------------
ORBITAL ENERGIES
----------------

  NO   OCC          E(Eh)            E(eV) 
   0   2.0000     -90.849401     -2472.1379 
   1   2.0000     -25.621268      -697.1901 
   2   2.0000     -25.616111      -697.0498 
   3   2.0000     -25.613434      -696.9770 
   4   2.0000     -19.904181      -541.6203 
   5   2.0000     -19.827574      -539.5357 
   6   2.0000     -19.827176      -539.5249 
   7   2.0000     -15.041830      -409.3090 
   8   2.0000     -15.038549      -409.2197 
   9   2.0000     -14.886437      -405.0805 
  10   2.0000     -10.992681      -299.1261 
  11   2.0000     -10.864306      -295.6328 
  12   2.0000     -10.849828      -295.2388 
  13   2.0000     -10.803696      -293.9835 
  14   2.0000     -10.803440      -293.9766 
  15   2.0000     -10.797563      -293.8166 
  16   2.0000     -10.796957      -293.8001 
  17   2.0000     -10.795083      -293.7491 
  18   2.0000     -10.794529      -293.7341 
  19   2.0000     -10.793076      -293.6945 
  20   2.0000     -10.789789      -293.6051 
  21   2.0000     -10.775260      -293.2097 
  22   2.0000     -10.754803      -292.6531 
  23   2.0000     -10.754666      -292.6493 
  24   2.0000     -10.745876      -292.4102 
  25   2.0000     -10.743415      -292.3432 
  26   2.0000      -8.590778      -233.7670 
  27   2.0000      -6.377465      -173.5397 
  28   2.0000      -6.375137      -173.4763 
  29   2.0000      -6.374159      -173.4497 
  30   2.0000      -1.467175       -39.9238 
  31   2.0000      -1.373926       -37.3864 
  32   2.0000      -1.370985       -37.3064 
  33   2.0000      -1.178580       -32.0708 
  34   2.0000      -1.140730       -31.0408 
  35   2.0000      -1.103312       -30.0227 
  36   2.0000      -1.024658       -27.8824 
  37   2.0000      -1.017414       -27.6853 
  38   2.0000      -1.009934       -27.4817 
  39   2.0000      -0.962001       -26.1774 
  40   2.0000      -0.918119       -24.9833 
  41   2.0000      -0.882997       -24.0276 
  42   2.0000      -0.878254       -23.8985 
  43   2.0000      -0.874457       -23.7952 
  44   2.0000      -0.844487       -22.9797 
  45   2.0000      -0.810374       -22.0514 
  46   2.0000      -0.778796       -21.1921 
  47   2.0000      -0.727753       -19.8032 
  48   2.0000      -0.710008       -19.3203 
  49   2.0000      -0.708360       -19.2755 
  50   2.0000      -0.675623       -18.3846 
  51   2.0000      -0.672342       -18.2953 
  52   2.0000      -0.637903       -17.3582 
  53   2.0000      -0.627448       -17.0737 
  54   2.0000      -0.625419       -17.0185 
  55   2.0000      -0.610051       -16.6003 
  56   2.0000      -0.591134       -16.0856 
  57   2.0000      -0.580534       -15.7971 
  58   2.0000      -0.569212       -15.4891 
  59   2.0000      -0.557588       -15.1727 
  60   2.0000      -0.532024       -14.4771 
  61   2.0000      -0.526463       -14.3258 
  62   2.0000      -0.517170       -14.0729 
  63   2.0000      -0.515128       -14.0174 
  64   2.0000      -0.507000       -13.7962 
  65   2.0000      -0.499072       -13.5804 
  66   2.0000      -0.485816       -13.2197 
  67   2.0000      -0.481117       -13.0919 
  68   2.0000      -0.475564       -12.9407 
  69   2.0000      -0.468690       -12.7537 
  70   2.0000      -0.468061       -12.7366 
  71   2.0000      -0.460194       -12.5225 
  72   2.0000      -0.453813       -12.3489 
  73   2.0000      -0.449135       -12.2216 
  74   2.0000      -0.444949       -12.1077 
  75   2.0000      -0.439885       -11.9699 
  76   2.0000      -0.431507       -11.7419 
  77   2.0000      -0.425250       -11.5716 
  78   2.0000      -0.417478       -11.3601 
  79   2.0000      -0.407441       -11.0870 
  80   2.0000      -0.398450       -10.8424 
  81   2.0000      -0.393983       -10.7208 
  82   2.0000      -0.391208       -10.6453 
  83   2.0000      -0.390583       -10.6283 
  84   2.0000      -0.381313       -10.3760 
  85   2.0000      -0.356972        -9.7137 
  86   2.0000      -0.316999        -8.6260 
  87   2.0000      -0.292923        -7.9708 
  88   2.0000      -0.289006        -7.8643 
  89   2.0000      -0.275730        -7.5030 
  90   2.0000      -0.271345        -7.3837 
  91   2.0000      -0.263367        -7.1666 
  92   2.0000      -0.261018        -7.1027 
  93   2.0000      -0.247063        -6.7229 
  94   2.0000      -0.233331        -6.3493 
  95   2.0000      -0.229728        -6.2512 
  96   2.0000      -0.200036        -5.4433 
  97   2.0000      -0.196887        -5.3576 
  98   2.0000      -0.157237        -4.2786 
  99   0.0000       0.057843         1.5740 
 100   0.0000       0.067749         1.8435 
 101   0.0000       0.070249         1.9116 
 102   0.0000       0.082679         2.2498 
 103   0.0000       0.086013         2.3405 
 104   0.0000       0.095943         2.6107 
 105   0.0000       0.100854         2.7444 
 106   0.0000       0.101704         2.7675 
 107   0.0000       0.103158         2.8071 
 108   0.0000       0.103729         2.8226 
 109   0.0000       0.110880         3.0172 
 110   0.0000       0.112528         3.0620 
 111   0.0000       0.115864         3.1528 
 112   0.0000       0.122314         3.3283 
 113   0.0000       0.127311         3.4643 
 114   0.0000       0.133720         3.6387 
 115   0.0000       0.136575         3.7164 
 116   0.0000       0.138156         3.7594 
 117   0.0000       0.142632         3.8812 
 118   0.0000       0.144286         3.9262 
 119   0.0000       0.145096         3.9483 
 120   0.0000       0.151038         4.1099 
 121   0.0000       0.154273         4.1980 
 122   0.0000       0.156441         4.2570 
 123   0.0000       0.157730         4.2920 
 124   0.0000       0.158996         4.3265 
 125   0.0000       0.162108         4.4112 
 126   0.0000       0.165279         4.4975 
 127   0.0000       0.167781         4.5655 
 128   0.0000       0.169682         4.6173 
 129   0.0000       0.172338         4.6896 
 130   0.0000       0.176872         4.8129 
 131   0.0000       0.178340         4.8529 
 132   0.0000       0.181851         4.9484 
 133   0.0000       0.184330         5.0159 
 134   0.0000       0.186549         5.0763 
 135   0.0000       0.190188         5.1753 
 136   0.0000       0.191804         5.2193 
 137   0.0000       0.193013         5.2521 
 138   0.0000       0.193831         5.2744 
 139   0.0000       0.199317         5.4237 
 140   0.0000       0.203372         5.5340 
 141   0.0000       0.206807         5.6275 
 142   0.0000       0.208696         5.6789 
 143   0.0000       0.212339         5.7780 
 144   0.0000       0.215217         5.8564 
 145   0.0000       0.217889         5.9291 
 146   0.0000       0.222438         6.0529 
 147   0.0000       0.223569         6.0836 
 148   0.0000       0.227886         6.2011 
 149   0.0000       0.229176         6.2362 
 150   0.0000       0.232809         6.3351 
 151   0.0000       0.236903         6.4464 
 152   0.0000       0.238832         6.4989 
 153   0.0000       0.240679         6.5492 
 154   0.0000       0.241638         6.5753 
 155   0.0000       0.246583         6.7099 
 156   0.0000       0.252608         6.8738 
 157   0.0000       0.253669         6.9027 
 158   0.0000       0.256582         6.9819 
 159   0.0000       0.258369         7.0306 
 160   0.0000       0.260816         7.0972 
 161   0.0000       0.265066         7.2128 
 162   0.0000       0.265595         7.2272 
 163   0.0000       0.268376         7.3029 
 164   0.0000       0.273304         7.4370 
 165   0.0000       0.273582         7.4445 
 166   0.0000       0.275675         7.5015 
 167   0.0000       0.278647         7.5824 
 168   0.0000       0.281519         7.6605 
 169   0.0000       0.285103         7.7580 
 170   0.0000       0.286687         7.8012 
 171   0.0000       0.290247         7.8980 
 172   0.0000       0.291674         7.9369 
 173   0.0000       0.293432         7.9847 
 174   0.0000       0.294817         8.0224 
 175   0.0000       0.297374         8.0920 
 176   0.0000       0.297843         8.1047 
 177   0.0000       0.300456         8.1758 
 178   0.0000       0.301583         8.2065 
 179   0.0000       0.305522         8.3137 
 180   0.0000       0.311420         8.4742 
 181   0.0000       0.312848         8.5130 
 182   0.0000       0.314070         8.5463 
 183   0.0000       0.318321         8.6620 
 184   0.0000       0.319324         8.6892 
 185   0.0000       0.320287         8.7155 
 186   0.0000       0.323057         8.7908 
 187   0.0000       0.326846         8.8939 
 188   0.0000       0.328996         8.9524 
 189   0.0000       0.330519         8.9939 
 190   0.0000       0.332892         9.0584 
 191   0.0000       0.336109         9.1460 
 192   0.0000       0.337209         9.1759 
 193   0.0000       0.343212         9.3393 
 194   0.0000       0.344326         9.3696 
 195   0.0000       0.346077         9.4172 
 196   0.0000       0.346849         9.4382 
 197   0.0000       0.349682         9.5153 
 198   0.0000       0.350523         9.5382 
 199   0.0000       0.354287         9.6406 
 200   0.0000       0.355459         9.6725 
 201   0.0000       0.359540         9.7836 
 202   0.0000       0.361840         9.8462 
 203   0.0000       0.362202         9.8560 
 204   0.0000       0.367028         9.9873 
 205   0.0000       0.369282        10.0487 
 206   0.0000       0.370490        10.0815 
 207   0.0000       0.374600        10.1934 
 208   0.0000       0.376812        10.2536 
 209   0.0000       0.378468        10.2986 
 210   0.0000       0.379038        10.3141 
 211   0.0000       0.381540        10.3822 
 212   0.0000       0.385218        10.4823 
 213   0.0000       0.386287        10.5114 
 214   0.0000       0.387827        10.5533 
 215   0.0000       0.391150        10.6437 
 216   0.0000       0.391361        10.6495 
 217   0.0000       0.395262        10.7556 
 218   0.0000       0.395515        10.7625 
 219   0.0000       0.400349        10.8940 
 220   0.0000       0.401845        10.9348 
 221   0.0000       0.403315        10.9748 
 222   0.0000       0.406163        11.0522 
 223   0.0000       0.408173        11.1069 
 224   0.0000       0.411086        11.1862 
 225   0.0000       0.412622        11.2280 
 226   0.0000       0.418610        11.3909 
 227   0.0000       0.419903        11.4261 
 228   0.0000       0.422713        11.5026 
 229   0.0000       0.426181        11.5970 
 230   0.0000       0.427210        11.6250 
 231   0.0000       0.430237        11.7073 
 232   0.0000       0.431346        11.7375 
 233   0.0000       0.431941        11.7537 
 234   0.0000       0.435036        11.8379 
 235   0.0000       0.438260        11.9257 
 236   0.0000       0.440000        11.9730 
 237   0.0000       0.442834        12.0501 
 238   0.0000       0.445270        12.1164 
 239   0.0000       0.447882        12.1875 
 240   0.0000       0.451767        12.2932 
 241   0.0000       0.454998        12.3811 
 242   0.0000       0.457642        12.4531 
 243   0.0000       0.461529        12.5589 
 244   0.0000       0.461895        12.5688 
 245   0.0000       0.464770        12.6470 
 246   0.0000       0.467393        12.7184 
 247   0.0000       0.470329        12.7983 
 248   0.0000       0.472741        12.8639 
 249   0.0000       0.473962        12.8972 
 250   0.0000       0.476888        12.9768 
 251   0.0000       0.479181        13.0392 
 252   0.0000       0.480268        13.0687 
 253   0.0000       0.483869        13.1668 
 254   0.0000       0.485959        13.2236 
 255   0.0000       0.487380        13.2623 
 256   0.0000       0.489878        13.3303 
 257   0.0000       0.490095        13.3362 
 258   0.0000       0.493760        13.4359 
 259   0.0000       0.494553        13.4575 
 260   0.0000       0.496594        13.5130 
 261   0.0000       0.499931        13.6038 
 262   0.0000       0.500998        13.6328 
 263   0.0000       0.504699        13.7336 
 264   0.0000       0.505932        13.7671 
 265   0.0000       0.507410        13.8073 
 266   0.0000       0.511981        13.9317 
 267   0.0000       0.513019        13.9599 
 268   0.0000       0.515343        14.0232 
 269   0.0000       0.517478        14.0813 
 270   0.0000       0.519538        14.1374 
 271   0.0000       0.522432        14.2161 
 272   0.0000       0.523379        14.2419 
 273   0.0000       0.526585        14.3291 
 274   0.0000       0.528058        14.3692 
 275   0.0000       0.529363        14.4047 
 276   0.0000       0.530935        14.4475 
 277   0.0000       0.532981        14.5032 
 278   0.0000       0.537826        14.6350 
 279   0.0000       0.539434        14.6787 
 280   0.0000       0.543822        14.7982 
 281   0.0000       0.545097        14.8328 
 282   0.0000       0.546329        14.8664 
 283   0.0000       0.547682        14.9032 
 284   0.0000       0.549508        14.9529 
 285   0.0000       0.550795        14.9879 
 286   0.0000       0.554394        15.0858 
 287   0.0000       0.555778        15.1235 
 288   0.0000       0.558813        15.2061 
 289   0.0000       0.563766        15.3409 
 290   0.0000       0.569377        15.4935 
 291   0.0000       0.571311        15.5462 
 292   0.0000       0.571399        15.5486 
 293   0.0000       0.575491        15.6599 
 294   0.0000       0.575796        15.6682 
 295   0.0000       0.576846        15.6968 
 296   0.0000       0.581466        15.8225 
 297   0.0000       0.582371        15.8471 
 298   0.0000       0.585550        15.9336 
 299   0.0000       0.587505        15.9868 
 300   0.0000       0.587802        15.9949 
 301   0.0000       0.592479        16.1222 
 302   0.0000       0.595423        16.2023 
 303   0.0000       0.600851        16.3500 
 304   0.0000       0.602763        16.4020 
 305   0.0000       0.604172        16.4404 
 306   0.0000       0.605687        16.4816 
 307   0.0000       0.609432        16.5835 
 308   0.0000       0.610593        16.6151 
 309   0.0000       0.612257        16.6604 
 310   0.0000       0.616480        16.7753 
 311   0.0000       0.621295        16.9063 
 312   0.0000       0.623221        16.9587 
 313   0.0000       0.626568        17.0498 
 314   0.0000       0.627564        17.0769 
 315   0.0000       0.629961        17.1421 
 316   0.0000       0.633018        17.2253 
 317   0.0000       0.638072        17.3628 
 318   0.0000       0.641722        17.4621 
 319   0.0000       0.643417        17.5083 
 320   0.0000       0.645589        17.5674 
 321   0.0000       0.646908        17.6033 
 322   0.0000       0.651411        17.7258 
 323   0.0000       0.654656        17.8141 
 324   0.0000       0.656041        17.8518 
 325   0.0000       0.659877        17.9562 
 326   0.0000       0.666399        18.1336 
 327   0.0000       0.667328        18.1589 
 328   0.0000       0.668673        18.1955 
 329   0.0000       0.671208        18.2645 
 330   0.0000       0.672878        18.3099 
 331   0.0000       0.676684        18.4135 
 332   0.0000       0.679936        18.5020 
 333   0.0000       0.682668        18.5764 
 334   0.0000       0.686431        18.6787 
 335   0.0000       0.690452        18.7881 
 336   0.0000       0.691790        18.8246 
 337   0.0000       0.695155        18.9161 
 338   0.0000       0.697043        18.9675 
 339   0.0000       0.698611        19.0102 
 340   0.0000       0.702054        19.1038 
 341   0.0000       0.704256        19.1638 
 342   0.0000       0.707628        19.2555 
 343   0.0000       0.712797        19.3962 
 344   0.0000       0.714489        19.4422 
 345   0.0000       0.716489        19.4967 
 346   0.0000       0.720501        19.6058 
 347   0.0000       0.722955        19.6726 
 348   0.0000       0.727340        19.7919 
 349   0.0000       0.731289        19.8994 
 350   0.0000       0.736036        20.0286 
 351   0.0000       0.736312        20.0361 
 352   0.0000       0.738590        20.0980 
 353   0.0000       0.741881        20.1876 
 354   0.0000       0.744079        20.2474 
 355   0.0000       0.747557        20.3421 
 356   0.0000       0.748787        20.3755 
 357   0.0000       0.752921        20.4880 
 358   0.0000       0.760090        20.6831 
 359   0.0000       0.764367        20.7995 
 360   0.0000       0.766106        20.8468 
 361   0.0000       0.768519        20.9125 
 362   0.0000       0.771297        20.9881 
 363   0.0000       0.773690        21.0532 
 364   0.0000       0.778343        21.1798 
 365   0.0000       0.783567        21.3219 
 366   0.0000       0.785459        21.3734 
 367   0.0000       0.788880        21.4665 
 368   0.0000       0.794133        21.6094 
 369   0.0000       0.797653        21.7052 
 370   0.0000       0.802449        21.8358 
 371   0.0000       0.805882        21.9292 
 372   0.0000       0.807745        21.9799 
 373   0.0000       0.808274        21.9943 
 374   0.0000       0.809024        22.0147 
 375   0.0000       0.812760        22.1163 
 376   0.0000       0.814369        22.1601 
 377   0.0000       0.819716        22.3056 
 378   0.0000       0.824225        22.4283 
 379   0.0000       0.826050        22.4780 
 380   0.0000       0.830661        22.6034 
 381   0.0000       0.832042        22.6410 
 382   0.0000       0.834879        22.7182 
 383   0.0000       0.837822        22.7983 
 384   0.0000       0.844379        22.9767 
 385   0.0000       0.846143        23.0247 
 386   0.0000       0.848669        23.0934 
 387   0.0000       0.851221        23.1629 
 388   0.0000       0.855629        23.2828 
 389   0.0000       0.861106        23.4319 
 390   0.0000       0.863952        23.5093 
 391   0.0000       0.866744        23.5853 
 392   0.0000       0.870922        23.6990 
 393   0.0000       0.873303        23.7638 
 394   0.0000       0.874380        23.7931 
 395   0.0000       0.874786        23.8041 
 396   0.0000       0.879525        23.9331 
 397   0.0000       0.884669        24.0731 
 398   0.0000       0.885006        24.0822 
 399   0.0000       0.887543        24.1513 
 400   0.0000       0.889572        24.2065 
 401   0.0000       0.891585        24.2613 
 402   0.0000       0.894469        24.3397 
 403   0.0000       0.903036        24.5729 
 404   0.0000       0.904853        24.6223 
 405   0.0000       0.907023        24.6814 
 406   0.0000       0.908509        24.7218 
 407   0.0000       0.914890        24.8954 
 408   0.0000       0.917892        24.9771 
 409   0.0000       0.918038        24.9811 
 410   0.0000       0.923837        25.1389 
 411   0.0000       0.924611        25.1600 
 412   0.0000       0.928634        25.2694 
 413   0.0000       0.930240        25.3131 
 414   0.0000       0.935821        25.4650 
 415   0.0000       0.937762        25.5178 
 416   0.0000       0.939318        25.5601 
 417   0.0000       0.944008        25.6878 
 418   0.0000       0.945586        25.7307 
 419   0.0000       0.949088        25.8260 
 420   0.0000       0.954493        25.9731 
 421   0.0000       0.956387        26.0246 
 422   0.0000       0.958306        26.0768 
 423   0.0000       0.962601        26.1937 
 424   0.0000       0.967272        26.3208 
 425   0.0000       0.967484        26.3266 
 426   0.0000       0.971403        26.4332 
 427   0.0000       0.976141        26.5621 
 428   0.0000       0.977729        26.6054 
 429   0.0000       0.982007        26.7218 
 430   0.0000       0.983865        26.7723 
 431   0.0000       0.984758        26.7966 
 432   0.0000       0.989000        26.9121 
 433   0.0000       0.995596        27.0915 
 434   0.0000       1.001051        27.2400 
 435   0.0000       1.002778        27.2870 
 436   0.0000       1.004251        27.3271 
 437   0.0000       1.007884        27.4259 
 438   0.0000       1.011183        27.5157 
 439   0.0000       1.015428        27.6312 
 440   0.0000       1.017663        27.6920 
 441   0.0000       1.022616        27.8268 
 442   0.0000       1.025826        27.9142 
 443   0.0000       1.028828        27.9958 
 444   0.0000       1.030553        28.0428 
 445   0.0000       1.032282        28.0898 
 446   0.0000       1.036048        28.1923 
 447   0.0000       1.037521        28.2324 
 448   0.0000       1.038539        28.2601 
 449   0.0000       1.043090        28.3839 
 450   0.0000       1.046802        28.4849 
 451   0.0000       1.051042        28.6003 
 452   0.0000       1.054392        28.6915 
 453   0.0000       1.056389        28.7458 
 454   0.0000       1.059477        28.8298 
 455   0.0000       1.062582        28.9143 
 456   0.0000       1.065443        28.9922 
 457   0.0000       1.067482        29.0477 
 458   0.0000       1.072996        29.1977 
 459   0.0000       1.076005        29.2796 
 460   0.0000       1.078198        29.3393 
 461   0.0000       1.081960        29.4416 
 462   0.0000       1.083683        29.4885 
 463   0.0000       1.085377        29.5346 
 464   0.0000       1.088246        29.6127 
 465   0.0000       1.089580        29.6490 
 466   0.0000       1.094377        29.7795 
 467   0.0000       1.097208        29.8566 
 468   0.0000       1.098050        29.8795 
 469   0.0000       1.102066        29.9887 
 470   0.0000       1.103651        30.0319 
 471   0.0000       1.108088        30.1526 
 472   0.0000       1.110166        30.2092 
 473   0.0000       1.113234        30.2926 
 474   0.0000       1.116153        30.3721 
 475   0.0000       1.118073        30.4243 
 476   0.0000       1.119282        30.4572 
 477   0.0000       1.121875        30.5278 
 478   0.0000       1.127169        30.6718 
 479   0.0000       1.131432        30.7878 
 480   0.0000       1.133831        30.8531 
 481   0.0000       1.135696        30.9039 
 482   0.0000       1.137648        30.9570 
 483   0.0000       1.143410        31.1138 
 484   0.0000       1.145000        31.1570 
 485   0.0000       1.147837        31.2342 
 486   0.0000       1.150518        31.3072 
 487   0.0000       1.154471        31.4147 
 488   0.0000       1.154622        31.4188 
 489   0.0000       1.158257        31.5178 
 490   0.0000       1.159202        31.5435 
 491   0.0000       1.161498        31.6060 
 492   0.0000       1.166955        31.7545 
 493   0.0000       1.167519        31.7698 
 494   0.0000       1.170673        31.8556 
 495   0.0000       1.172527        31.9061 
 496   0.0000       1.176724        32.0203 
 497   0.0000       1.180009        32.1097 
 498   0.0000       1.181813        32.1588 
 499   0.0000       1.187380        32.3102 
 500   0.0000       1.189028        32.3551 
 501   0.0000       1.190648        32.3992 
 502   0.0000       1.192151        32.4401 
 503   0.0000       1.195060        32.5192 
 504   0.0000       1.198826        32.6217 
 505   0.0000       1.204794        32.7841 
 506   0.0000       1.206227        32.8231 
 507   0.0000       1.208450        32.8836 
 508   0.0000       1.213116        33.0106 
 509   0.0000       1.213420        33.0188 
 510   0.0000       1.217714        33.1357 
 511   0.0000       1.221297        33.2332 
 512   0.0000       1.221753        33.2456 
 513   0.0000       1.225212        33.3397 
 514   0.0000       1.227543        33.4032 
 515   0.0000       1.228554        33.4306 
 516   0.0000       1.230888        33.4942 
 517   0.0000       1.233374        33.5618 
 518   0.0000       1.239604        33.7313 
 519   0.0000       1.240389        33.7527 
 520   0.0000       1.244924        33.8761 
 521   0.0000       1.247858        33.9559 
 522   0.0000       1.250969        34.0406 
 523   0.0000       1.256976        34.2041 
 524   0.0000       1.259090        34.2616 
 525   0.0000       1.259500        34.2727 
 526   0.0000       1.262742        34.3610 
 527   0.0000       1.263357        34.3777 
 528   0.0000       1.268286        34.5118 
 529   0.0000       1.272033        34.6138 
 530   0.0000       1.274798        34.6890 
 531   0.0000       1.277638        34.7663 
 532   0.0000       1.281467        34.8705 
 533   0.0000       1.289827        35.0980 
 534   0.0000       1.292400        35.1680 
 535   0.0000       1.296801        35.2878 
 536   0.0000       1.299696        35.3665 
 537   0.0000       1.305608        35.5274 
 538   0.0000       1.307942        35.5909 
 539   0.0000       1.311729        35.6940 
 540   0.0000       1.314287        35.7636 
 541   0.0000       1.315908        35.8077 
 542   0.0000       1.321193        35.9515 
 543   0.0000       1.323797        36.0223 
 544   0.0000       1.325994        36.0821 
 545   0.0000       1.328177        36.1415 
 546   0.0000       1.331359        36.2281 
 547   0.0000       1.340099        36.4659 
 548   0.0000       1.343766        36.5657 
 549   0.0000       1.344537        36.5867 
 550   0.0000       1.349262        36.7153 
 551   0.0000       1.351167        36.7671 
 552   0.0000       1.355206        36.8770 
 553   0.0000       1.357696        36.9448 
 554   0.0000       1.360742        37.0277 
 555   0.0000       1.362923        37.0870 
 556   0.0000       1.367489        37.2113 
 557   0.0000       1.370160        37.2839 
 558   0.0000       1.373034        37.3622 
 559   0.0000       1.373961        37.3874 
 560   0.0000       1.379287        37.5323 
 561   0.0000       1.380870        37.5754 
 562   0.0000       1.383776        37.6545 
 563   0.0000       1.385581        37.7036 
 564   0.0000       1.388862        37.7929 
 565   0.0000       1.395470        37.9727 
 566   0.0000       1.399708        38.0880 
 567   0.0000       1.402824        38.1728 
 568   0.0000       1.404606        38.2213 
 569   0.0000       1.409443        38.3529 
 570   0.0000       1.411223        38.4013 
 571   0.0000       1.412756        38.4430 
 572   0.0000       1.417597        38.5748 
 573   0.0000       1.418816        38.6079 
 574   0.0000       1.426029        38.8042 
 575   0.0000       1.429460        38.8976 
 576   0.0000       1.433767        39.0148 
 577   0.0000       1.435046        39.0496 
 578   0.0000       1.439002        39.1572 
 579   0.0000       1.444466        39.3059 
 580   0.0000       1.448612        39.4187 
 581   0.0000       1.451591        39.4998 
 582   0.0000       1.454416        39.5767 
 583   0.0000       1.458281        39.6819 
 584   0.0000       1.461861        39.7793 
 585   0.0000       1.469835        39.9962 
 586   0.0000       1.472933        40.0805 
 587   0.0000       1.475024        40.1375 
 588   0.0000       1.477449        40.2034 
 589   0.0000       1.485284        40.4166 
 590   0.0000       1.489642        40.5352 
 591   0.0000       1.493160        40.6309 
 592   0.0000       1.494934        40.6792 
 593   0.0000       1.499147        40.7939 
 594   0.0000       1.502754        40.8920 
 595   0.0000       1.504950        40.9518 
 596   0.0000       1.508869        41.0584 
 597   0.0000       1.515354        41.2349 
 598   0.0000       1.515785        41.2466 
 599   0.0000       1.517818        41.3019 
 600   0.0000       1.521870        41.4122 
 601   0.0000       1.526467        41.5373 
 602   0.0000       1.529867        41.6298 
 603   0.0000       1.533665        41.7331 
 604   0.0000       1.537634        41.8411 
 605   0.0000       1.538981        41.8778 
 606   0.0000       1.540600        41.9219 
 607   0.0000       1.548515        42.1372 
 608   0.0000       1.551678        42.2233 
 609   0.0000       1.552772        42.2531 
 610   0.0000       1.558124        42.3987 
 611   0.0000       1.562560        42.5194 
 612   0.0000       1.564066        42.5604 
 613   0.0000       1.570788        42.7433 
 614   0.0000       1.574785        42.8521 
 615   0.0000       1.576938        42.9107 
 616   0.0000       1.581116        43.0244 
 617   0.0000       1.581988        43.0481 
 618   0.0000       1.586213        43.1630 
 619   0.0000       1.589912        43.2637 
 620   0.0000       1.599420        43.5224 
 621   0.0000       1.603821        43.6422 
 622   0.0000       1.606801        43.7233 
 623   0.0000       1.612144        43.8687 
 624   0.0000       1.613842        43.9149 
 625   0.0000       1.618066        44.0298 
 626   0.0000       1.623275        44.1716 
 627   0.0000       1.626835        44.2684 
 628   0.0000       1.629623        44.3443 
 629   0.0000       1.632008        44.4092 
 630   0.0000       1.636206        44.5234 
 631   0.0000       1.640199        44.6321 
 632   0.0000       1.645154        44.7669 
 633   0.0000       1.645675        44.7811 
 634   0.0000       1.648288        44.8522 
 635   0.0000       1.649264        44.8787 
 636   0.0000       1.656371        45.0721 
 637   0.0000       1.659655        45.1615 
 638   0.0000       1.663179        45.2574 
 639   0.0000       1.664261        45.2868 
 640   0.0000       1.671302        45.4784 
 641   0.0000       1.673174        45.5294 
 642   0.0000       1.679032        45.6888 
 643   0.0000       1.685164        45.8556 
 644   0.0000       1.686764        45.8992 
 645   0.0000       1.691247        46.0212 
 646   0.0000       1.694997        46.1232 
 647   0.0000       1.700431        46.2711 
 648   0.0000       1.704950        46.3941 
 649   0.0000       1.712653        46.6037 
 650   0.0000       1.715156        46.6718 
 651   0.0000       1.717620        46.7388 
 652   0.0000       1.723442        46.8972 
 653   0.0000       1.725745        46.9599 
 654   0.0000       1.733607        47.1739 
 655   0.0000       1.742335        47.4113 
[...]
      dz2     :     0.068943  d :     0.702798
      dxz     :     0.068729
      dyz     :     0.133517
      dx2y2   :     0.229624
      dxy     :     0.201986
      f0      :     0.024295  f :     0.335021
      f+1     :     0.018001
      f-1     :     0.038157
      f+2     :     0.039138
      f-2     :     0.040583
      f+3     :     0.097037
      f-3     :     0.077811
 31 H s       :     0.670200  s :     0.670200
      pz      :     0.090631  p :     0.298193
      px      :     0.125785
      py      :     0.081777
      dz2     :     0.030203  d :     0.211898
      dxz     :     0.051421
      dyz     :     0.017618
      dx2y2   :     0.052229
      dxy     :     0.060426
 32 C s       :     2.470733  s :     2.470733
      pz      :     0.626058  p :     2.265827
      px      :     0.813583
      py      :     0.826186
      dz2     :     0.094130  d :     0.709844
      dxz     :     0.127495
      dyz     :     0.070336
      dx2y2   :     0.235341
      dxy     :     0.182541
      f0      :     0.023463  f :     0.339471
      f+1     :     0.028975
      f-1     :     0.028744
      f+2     :     0.039995
      f-2     :     0.054466
      f+3     :     0.087633
      f-3     :     0.076194
 33 H s       :     0.650152  s :     0.650152
      pz      :     0.080098  p :     0.298386
      px      :     0.079936
      py      :     0.138353
      dz2     :     0.022995  d :     0.216871
      dxz     :     0.007599
      dyz     :     0.059930
      dx2y2   :     0.051707
      dxy     :     0.074641
 34 H s       :     0.620260  s :     0.620260
      pz      :     0.086301  p :     0.269803
      px      :     0.065089
      py      :     0.118412
      dz2     :     0.053648  d :     0.212988
      dxz     :     0.012604
      dyz     :     0.047668
      dx2y2   :     0.039204
      dxy     :     0.059864
 35 H s       :     0.612298  s :     0.612298
      pz      :     0.077448  p :     0.294427
      px      :     0.126928
      py      :     0.090051
      dz2     :     0.037409  d :     0.230053
      dxz     :     0.055548
      dyz     :     0.014154
      dx2y2   :     0.052248
      dxy     :     0.070695
 36 H s       :     0.607399  s :     0.607399
      pz      :     0.084090  p :     0.296477
      px      :     0.085641
      py      :     0.126746
      dz2     :     0.054708  d :     0.234330
      dxz     :     0.013502
      dyz     :     0.050807
      dx2y2   :     0.043391
      dxy     :     0.071922
 37 O s       :     3.189281  s :     3.189281
      pz      :     1.405299  p :     4.063659
      px      :     1.392745
      py      :     1.265616
      dz2     :     0.036181  d :     0.211710
      dxz     :     0.048831
      dyz     :     0.028457
      dx2y2   :     0.050740
      dxy     :     0.047502
      f0      :     0.006098  f :     0.073985
      f+1     :     0.015955
      f-1     :     0.005002
      f+2     :     0.006849
      f-2     :     0.013935
      f+3     :     0.012628
      f-3     :     0.013519
 38 H s       :     0.631584  s :     0.631584
      pz      :     0.119293  p :     0.333377
      px      :     0.127909
      py      :     0.086176
      dz2     :     0.060723  d :     0.255819
      dxz     :     0.058744
      dyz     :     0.036842
      dx2y2   :     0.054352
      dxy     :     0.045159


                      *****************************
                      * MAYER POPULATION ANALYSIS *
                      *****************************

  NA   - Mulliken gross atomic population
  ZA   - Total nuclear charge
  QA   - Mulliken gross atomic charge
  VA   - Mayer's total valence
  BVA  - Mayer's bonded valence
  FA   - Mayer's free valence

  ATOM       NA         ZA         QA         VA         BVA        FA
  0 C      5.9691     6.0000     0.0309     4.5532     4.5532    -0.0000
  1 C      5.2233     6.0000     0.7767     2.3764     2.3764    -0.0000
  2 C      4.7917     6.0000     1.2083     3.0165     3.0165    -0.0000
  3 C      6.8469     6.0000    -0.8469     0.4303     0.4303     0.0000
  4 H      0.7874     1.0000     0.2126     1.0836     1.0836     0.0000
  5 C      5.1489     6.0000     0.8511     1.1681     1.1681     0.0000
  6 C      4.8125     6.0000     1.1875     1.2784     1.2784    -0.0000
  7 C      6.0970     6.0000    -0.0970     1.4839     1.4839     0.0000
  8 C      7.1486     6.0000    -1.1486     2.7682     2.7682     0.0000
  9 S     13.9430    16.0000     2.0570     4.5315     4.5315    -0.0000
 10 O      9.0342     8.0000    -1.0342     1.2221     1.2221     0.0000
 11 O      9.0586     8.0000    -1.0586     1.2599     1.2599    -0.0000
 12 N      8.1217     7.0000    -1.1217     2.3951     2.3951     0.0000
 13 H      0.8384     1.0000     0.1616     1.0083     1.0083     0.0000
 14 N      7.7470     7.0000    -0.7470     2.1533     2.1533     0.0000
 15 C      5.3157     6.0000     0.6843     3.0838     3.0838    -0.0000
 16 N      7.1973     7.0000    -0.1973     2.3968     2.3968    -0.0000
 17 H      0.9526     1.0000     0.0474     1.0246     1.0246    -0.0000
 18 F      9.4096     9.0000    -0.4096     0.7581     0.7581    -0.0000
 19 F      9.4195     9.0000    -0.4195     0.8522     0.8522    -0.0000
 20 F      9.4085     9.0000    -0.4085     0.8251     0.8251    -0.0000
 21 H      0.9725     1.0000     0.0275     1.0896     1.0896    -0.0000
 22 C      6.6177     6.0000    -0.6177     3.9265     3.9265    -0.0000
 23 C      4.4066     6.0000     1.5934     1.1162     1.1162    -0.0000
 24 C      7.0131     6.0000    -1.0131     3.0432     3.0432     0.0000
 25 H      0.8835     1.0000     0.1165     1.1041     1.1041    -0.0000
 26 C      6.6529     6.0000    -0.6529     3.1060     3.1060    -0.0000
 27 H      0.4362     1.0000     0.5638     0.5392     0.5392    -0.0000
 28 C      6.1955     6.0000    -0.1955     2.9836     2.9836    -0.0000
 29 H      0.5757     1.0000     0.4243     0.7405     0.7405     0.0000
 30 C      6.6349     6.0000    -0.6349     3.0889     3.0889    -0.0000
 31 H      0.3702     1.0000     0.6298     0.4168     0.4168    -0.0000
 32 C      6.9153     6.0000    -0.9153     3.2138     3.2138     0.0000
 33 H      0.9116     1.0000     0.0884     1.2544     1.2544     0.0000
 34 H      0.6542     1.0000     0.3458     0.7874     0.7874    -0.0000
 35 H      0.6649     1.0000     0.3351     0.8430     0.8430     0.0000
 36 H      0.8644     1.0000     0.1356     1.0341     1.0341    -0.0000
 37 O      8.9926     8.0000    -0.9926     0.9960     0.9960     0.0000
 38 H      0.9666     1.0000     0.0334     1.4163     1.4163     0.0000

  Mayer bond orders larger than 0.100000
B(  0-C ,  1-C ) :   1.0257 B(  0-C ,  6-C ) :   0.8001 B(  0-C ,  8-C ) :   1.4024 
B(  0-C ,  9-S ) :   0.7253 B(  0-C , 10-O ) :   0.2953 B(  0-C , 11-O ) :  -0.1054 
B(  0-C , 12-N ) :   0.2582 B(  0-C , 19-F ) :   0.1367 B(  0-C , 20-F ) :   0.2181 
B(  0-C , 24-C ) :  -0.2411 B(  0-C , 25-H ) :   0.2954 B(  0-C , 26-C ) :   0.2740 
B(  0-C , 27-H ) :  -0.2992 B(  0-C , 30-C ) :   0.4351 B(  0-C , 31-H ) :  -0.4566 
B(  0-C , 37-O ) :  -0.2070 B(  1-C ,  2-C ) :   0.8287 B(  1-C ,  3-C ) :   0.3211 
B(  1-C ,  4-H ) :  -0.2029 B(  1-C ,  5-C ) :   0.5753 B(  1-C ,  6-C ) :  -0.1822 
B(  1-C ,  8-C ) :  -0.1575 B(  1-C ,  9-S ) :  -0.1101 B(  1-C , 11-O ) :   0.2245 
B(  1-C , 12-N ) :  -0.1608 B(  1-C , 18-F ) :   0.4165 B(  1-C , 19-F ) :   0.1806 
B(  1-C , 20-F ) :  -0.1818 B(  1-C , 24-C ) :  -0.1734 B(  1-C , 26-C ) :   0.2245 
B(  2-C ,  6-C ) :   0.1091 B(  2-C , 18-F ) :   0.6140 B(  2-C , 19-F ) :   0.7015 
B(  2-C , 20-F ) :   0.7423 B(  3-C ,  4-H ) :   1.1446 B(  3-C ,  5-C ) :  -0.5517 
B(  3-C ,  6-C ) :   0.4728 B(  3-C ,  9-S ) :  -0.1138 B(  3-C , 14-N ) :  -0.3161 
B(  3-C , 16-N ) :   0.1301 B(  3-C , 18-F ) :  -0.2217 B(  3-C , 25-H ) :  -0.1829 
B(  3-C , 27-H ) :   0.1329 B(  3-C , 30-C ) :  -0.2399 B(  3-C , 32-C ) :   0.1001 
B(  5-C ,  6-C ) :   0.1511 B(  5-C ,  7-C ) :   0.5983 B(  5-C ,  8-C ) :  -0.3235 
B(  5-C , 14-N ) :   0.5938 B(  5-C , 16-N ) :   0.1895 B(  5-C , 26-C ) :  -0.1734 
B(  5-C , 29-H ) :   0.1787 B(  5-C , 30-C ) :  -0.1233 B(  5-C , 32-C ) :   0.1723 
B(  6-C ,  7-C ) :  -0.6450 B(  6-C , 14-N ) :   0.1424 B(  6-C , 15-C ) :   0.1645 
B(  6-C , 16-N ) :  -0.5082 B(  6-C , 24-C ) :   0.2149 B(  6-C , 25-H ) :  -0.1516 
B(  6-C , 26-C ) :  -0.2148 B(  6-C , 29-H ) :  -0.1006 B(  6-C , 30-C ) :  -0.1462 
B(  6-C , 31-H ) :   0.3795 B(  6-C , 33-H ) :  -0.1553 B(  6-C , 37-O ) :   0.7722 
B(  6-C , 38-H ) :  -0.2891 B(  7-C ,  8-C ) :   0.2167 B(  7-C , 15-C ) :  -0.1851 
B(  7-C , 16-N ) :   1.0752 B(  7-C , 37-O ) :   0.6910 B(  8-C ,  9-S ) :   0.2729 
B(  8-C , 20-F ) :   0.1429 B(  8-C , 25-H ) :   0.1389 B(  8-C , 32-C ) :  -0.2504 
B(  8-C , 33-H ) :   0.1518 B(  8-C , 37-O ) :  -0.2700 B(  8-C , 38-H ) :   1.5948 
B(  9-S , 10-O ) :   1.0869 B(  9-S , 11-O ) :   1.1433 B(  9-S , 12-N ) :   1.3625 
B( 12-N , 13-H ) :   0.8742 B( 14-N , 15-C ) :   0.6429 B( 14-N , 17-H ) :   1.0130 
B( 14-N , 22-C ) :   0.2008 B( 15-C , 16-N ) :   0.5299 B( 15-C , 22-C ) :   0.7091 
B( 15-C , 23-C ) :   0.1069 B( 15-C , 34-H ) :   0.8880 B( 16-N , 21-H ) :   1.0423 
B( 16-N , 37-O ) :  -0.1424 B( 22-C , 23-C ) :   0.3806 B( 22-C , 24-C ) :   0.1763 
B( 22-C , 32-C ) :   0.3314 B( 22-C , 35-H ) :   0.9637 B( 22-C , 36-H ) :   1.1687 
B( 23-C , 24-C ) :   0.5043 B( 23-C , 25-H ) :  -0.1548 B( 23-C , 30-C ) :   0.1455 
B( 23-C , 32-C ) :   0.4710 B( 23-C , 33-H ) :  -0.1681 B( 23-C , 38-H ) :   0.1308 
B( 24-C , 25-H ) :   1.2427 B( 24-C , 26-C ) :   1.4114 B( 24-C , 32-C ) :  -0.3590 
B( 25-H , 32-C ) :   0.1139 B( 26-C , 27-H ) :   0.6062 B( 26-C , 28-C ) :   1.1477 
B( 26-C , 29-H ) :  -0.1286 B( 26-C , 30-C ) :   0.1388 B( 26-C , 38-H ) :  -0.1308 
B( 28-C , 29-H ) :   0.7876 B( 28-C , 30-C ) :   1.1442 B( 28-C , 32-C ) :  -0.1512 
B( 29-H , 30-C ) :  -0.1223 B( 30-C , 31-H ) :   0.5192 B( 30-C , 32-C ) :   1.3315 
B( 31-H , 32-C ) :  -0.1132 B( 32-C , 33-H ) :   1.4885 B( 32-C , 38-H ) :   0.1407 


-------
TIMINGS
-------

Total SCF time: 0 days 0 hours 13 min 27 sec 

Total time                  ....     807.967 sec
Sum of individual times     ....     801.718 sec  ( 99.2%)

Fock matrix formation       ....     781.072 sec  ( 96.7%)
  Split-RI-J                ....      46.763 sec  (  6.0% of F)
  Chain of spheres X        ....     662.293 sec  ( 84.8% of F)
  XC integration            ....      69.545 sec  (  8.9% of F)
    Basis function eval.    ....       9.669 sec  ( 13.9% of XC)
    Density eval.           ....      33.087 sec  ( 47.6% of XC)
    XC-Functional eval.     ....       0.405 sec  (  0.6% of XC)
    XC-Potential eval.      ....      23.368 sec  ( 33.6% of XC)
Diagonalization             ....       3.080 sec  (  0.4%)
Density matrix formation    ....       0.442 sec  (  0.1%)
Population analysis         ....       0.556 sec  (  0.1%)
Initial guess               ....       4.309 sec  (  0.5%)
Orbital Transformation      ....       0.000 sec  (  0.0%)
Orbital Orthonormalization  ....       0.000 sec  (  0.0%)
DIIS solution               ....       2.073 sec  (  0.3%)
SOSCF solution              ....       2.930 sec  (  0.4%)
Grid generation             ....       7.257 sec  (  0.9%)

Maximum memory used throughout the entire SCF-calculation: 474.8 MB


           ************************************************************
           *        Program running with 8 parallel MPI-processes     *
           *              working on a common directory               *
           ************************************************************

------------------------------------------------------------------------------
                                ORCA  MP2 
------------------------------------------------------------------------------

Freezing NCore=60 chemical core electrons

   <<< Use J-auxbasis for calculation of Separable RI-J derivative contributions (Dim=1419) >>> 


-------------
RI-MP2 ENERGY
-------------
Dimension of the basis                    ... 1499
Memory devoted to MP2                     ... 3000 MB   
Data format for buffers                   ... DOUBLE
Compression type for matrix containers    ... UNCOMPRESSED
Scaling for aa/bb pairs                   ...   2.500e-01
Scaling for ab pairs                      ...   5.300e-01
Overall scaling of the MP2 energy         ...   1.000e+00
Calculating two index integrals           ... done (    0.124 sec)
Cholesky decomposition of V**-1           ... done (    1.156 sec)

-----------------
RI-TRANSFORMATION (AUX index driven)
-----------------

Dimension of the orbital-basis         ... 1499
Dimension of the aux-basis             ... 3395
Transformation of internal/external MOs...   30-  98 to   99-1498
Number Format for Storage              ... Double (8 Byte)
Integral mode                          ... Direct

First Phase: integral generation and transformation of MO indices
  Aux angular momentum 0               ... done (    2.323 sec)
  Aux angular momentum 1               ... done (    4.303 sec)
  Aux angular momentum 2               ... done (    5.881 sec)
  Aux angular momentum 3               ... done (    5.570 sec)
  Aux angular momentum 4               ... done (    2.978 sec)
Closing buffer VIA ( 2.44 GB; CompressionRatio= 1.00)
  Phase 1 completed in    21.516 sec
Second Phase: sorting and transformation of aux index

IA-Transformation
Memory available                       ... 2819 MB 
Max. # MO pairs treated in a batch     ... 9    
# of internal orbitals                 ... 69
# batches for internal orbitals        ... 1
Closing buffer IAV ( 2.44 GB; CompressionRatio= 1.00)
(ia|v) transformation done in     5.333 sec

  Phase 2 completed in     5.799 sec
RI-Integral transformation completed in    27.319 sec
Opening buffers                              ... done

Starting loop over batches of integrals:

Operator 0  - window                       ... ( 30- 98)x( 99-1498)
Operator 0  - Memory available             ...  3000 MB
Operator 0  - Memory needed per MO         ...  36.3 MB
Operator 0  - Number of orbitals per batch ... 9
Operator 0  - Number of batches            ... 1

OPERATOR  0   PASS   0:  MOs    30 ...   38 +   39 ...   47 +   48 ...   56 +   57 ...   65
                            +   66 ...   74 +   75 ...   83 +   84 ...   92 +   93 ...   98
  Reading integrals       ... ok
  Internal MO  32
  Internal MO  35
  Internal MO  38
Time spent in pair loops =    10.211 sec
Deleting buffer (Ka|jb)[aa] ...done

-----------------------------------------------
 RI-MP2 CORRELATION ENERGY:     -2.503551680 Eh
-----------------------------------------------


-------
TIMINGS
-------

Total time                :  144.160 sec
Integral trafo            :   27.344 sec ( 19.0%)
I/O of integrals          :    0.225 sec (  0.2%)
K(i,j) Operators          :    8.769 sec (  6.1%)
T(i,j) pair energies      :    0.791 sec (  0.5%)
V-calculation             :    0.124 sec (  0.1%)
V**(-1/2)                 :    1.156 sec (  0.8%)
Gamma(ia|P)               :    0.000 sec (  0.0%)
Gamma-Trafo               :    0.000 sec (  0.0%)
D(virtual)                :    0.000 sec (  0.0%)
D(internal)               :    0.000 sec (  0.0%)
W(virtual)                :    0.000 sec (  0.0%)
W(internal)               :    0.000 sec (  0.0%)
L(virtual)                :    0.000 sec (  0.0%)
L(internal)               :    0.000 sec (  0.0%)
G(D)                      :    0.000 sec (  0.0%)
G(Z)                      :    0.000 sec (  0.0%)
Z-Vector Solution         :    0.000 sec (  0.0%)
3-Index Derivative        :    0.000 sec (  0.0%)
2-Index Derivative        :    0.000 sec (  0.0%)
Separable Gradient (RIJ)  :    0.000 sec (  0.0%)
Separable Gradient (COSX) :    0.000 sec (  0.0%)


---------------------------------------
MP2 TOTAL ENERGY:    -1703.308170173 Eh
---------------------------------------

Maximum memory used throughout the entire MP2-calculation: 620.3 MB


-------------------------------------------------------------------------------
                          DFT DISPERSION CORRECTION                            
                                                                               
                              DFTD3 V3.1  Rev 1                                
                          USING Becke-Johnson damping                          
-------------------------------------------------------------------------------
The DSD-PBEP86 functional is recognized
Active option DFTDOPT                   ...         4   

molecular C6(AA) [au] = 20206.740467 


            DFT-D V3
 parameters
 s6 scaling factor         :     0.4180 
 a1 scaling factor         :     0.0000 
 s8 scaling factor         :     0.0000 
 a2 scaling factor         :     5.6500 
 ad hoc parameters k1-k3   :    16.0000     1.3333    -4.0000 

 Edisp/kcal,au: -19.973689476330  -0.031830096869 
 E6   /kcal   : -19.973689476 
 E8   /kcal   :  -0.000000000 
 % E8         :   0.000000000 

-------------------------   ----------------
Dispersion correction           -0.031830097
-------------------------   ----------------


-------------------------   --------------------
FINAL SINGLE POINT ENERGY     -1703.340000270024
-------------------------   --------------------


                            ***************************************
                            *     ORCA property calculations      *
                            ***************************************


  WARNING: The energy has been calculated at the MP2 level but the densities
           used in the property calculations are still SCF densities
           MP2 response densities have not been calculated 
           use %mp2 Density relaxed end
           or  %mp2 Density unrelaxed end

                                    ---------------------
                                    Active property flags
                                    ---------------------
   (+) Dipole Moment


------------------------------------------------------------------------------
                       ORCA ELECTRIC PROPERTIES CALCULATION
------------------------------------------------------------------------------

Dipole Moment Calculation                       ... on
Quadrupole Moment Calculation                   ... off
Polarizability Calculation                      ... off
GBWName                                         ... A.33.avtz.gbw
Electron density                                ... A.33.avtz.scfp
The origin for moment calculation is the CENTER OF MASS  = (-3.301997,  0.022395 -5.623352)

-------------
DIPOLE MOMENT
-------------
                                X             Y             Z
Electronic contribution:    -14.41395      13.07212      29.41607
Nuclear contribution   :     13.34593     -17.17494     -37.53105
                        -----------------------------------------
Total Dipole Moment    :     -1.06802      -4.10282      -8.11498
                        -----------------------------------------
Magnitude (a.u.)       :      9.15570
Magnitude (Debye)      :     23.27193



--------------------
Rotational spectrum 
--------------------
 
Rotational constants in cm-1:     0.011026     0.003368     0.002765 
Rotational constants in MHz :   330.560666   100.974386    82.902108 

 Dipole components along the rotational axes: 
x,y,z [a.u.] :    -8.932637     1.996427    -0.221512 
x,y,z [Debye]:   -22.704959     5.074514    -0.563039 

 

Timings for individual modules:

Sum of individual times         ...      961.075 sec (=  16.018 min)
GTO integral calculation        ...        5.566 sec (=   0.093 min)   0.6 %
SCF iterations                  ...      809.490 sec (=  13.492 min)  84.2 %
MP2 module                      ...      146.018 sec (=   2.434 min)  15.2 %
                             ****ORCA TERMINATED NORMALLY****
TOTAL RUN TIME: 0 days 0 hours 16 minutes 4 seconds 765 msec
