
                                 *****************
                                 * O   R   C   A *
                                 *****************

                                            #,                                       
                                            ###                                      
                                            ####                                     
                                            #####                                    
                                            ######                                   
                                           ########,                                 
                                     ,,################,,,,,                         
                               ,,#################################,,                 
                          ,,##########################################,,             
                       ,#########################################, ''#####,          
                    ,#############################################,,   '####,        
                  ,##################################################,,,,####,       
                ,###########''''           ''''###############################       
              ,#####''   ,,,,##########,,,,          '''####'''          '####       
            ,##' ,,,,###########################,,,                        '##       
           ' ,,###''''                  '''############,,,                           
         ,,##''                                '''############,,,,        ,,,,,,###''
      ,#''                                            '''#######################'''  
     '                                                          ''''####''''         
             ,#######,   #######,   ,#######,      ##                                
            ,#'     '#,  ##    ##  ,#'     '#,    #''#        ######   ,####,        
            ##       ##  ##   ,#'  ##            #'  '#       #        #'  '#        
            ##       ##  #######   ##           ,######,      #####,   #    #        
            '#,     ,#'  ##    ##  '#,     ,#' ,#      #,         ##   #,  ,#        
             '#######'   ##     ##  '#######'  #'      '#     #####' # '####'        



                  #######################################################
                  #                        -***-                        #
                  #          Department of theory and spectroscopy      #
                  #    Directorship and core code : Frank Neese         #
                  #        Max Planck Institute fuer Kohlenforschung    #
                  #                Kaiser Wilhelm Platz 1               #
                  #                 D-45470 Muelheim/Ruhr               #
                  #                      Germany                        #
                  #                                                     #
                  #                  All rights reserved                #
                  #                        -***-                        #
                  #######################################################


                         Program Version 5.0.3 -  RELEASE  -


 With contributions from (in alphabetic order):
   Daniel Aravena         : Magnetic Suceptibility
   Michael Atanasov       : Ab Initio Ligand Field Theory (pilot matlab implementation)
   Alexander A. Auer      : GIAO ZORA, VPT2 properties, NMR spectrum
   Ute Becker             : Parallelization
   Giovanni Bistoni       : ED, misc. LED, open-shell LED, HFLD
   Martin Brehm           : Molecular dynamics
   Dmytro Bykov           : SCF Hessian
   Vijay G. Chilkuri      : MRCI spin determinant printing, contributions to CSF-ICE
   Dipayan Datta          : RHF DLPNO-CCSD density
   Achintya Kumar Dutta   : EOM-CC, STEOM-CC
   Dmitry Ganyushin       : Spin-Orbit,Spin-Spin,Magnetic field MRCI
   Miquel Garcia          : C-PCM and meta-GGA Hessian, CC/C-PCM, Gaussian charge scheme
   Yang Guo               : DLPNO-NEVPT2, F12-NEVPT2, CIM, IAO-localization
   Andreas Hansen         : Spin unrestricted coupled pair/coupled cluster methods
   Benjamin Helmich-Paris : MC-RPA, TRAH-SCF, COSX integrals
   Lee Huntington         : MR-EOM, pCC
   Robert Izsak           : Overlap fitted RIJCOSX, COSX-SCS-MP3, EOM
   Marcus Kettner         : VPT2
   Christian Kollmar      : KDIIS, OOCD, Brueckner-CCSD(T), CCSD density, CASPT2, CASPT2-K
   Simone Kossmann        : Meta GGA functionals, TD-DFT gradient, OOMP2, MP2 Hessian
   Martin Krupicka        : Initial AUTO-CI
   Lucas Lang             : DCDCAS
   Marvin Lechner         : AUTO-CI (C++ implementation), FIC-MRCC
   Dagmar Lenk            : GEPOL surface, SMD
   Dimitrios Liakos       : Extrapolation schemes; Compound Job, initial MDCI parallelization
   Dimitrios Manganas     : Further ROCIS development; embedding schemes
   Dimitrios Pantazis     : SARC Basis sets
   Anastasios Papadopoulos: AUTO-CI, single reference methods and gradients
   Taras Petrenko         : DFT Hessian,TD-DFT gradient, ASA, ECA, R-Raman, ABS, FL, XAS/XES, NRVS
   Peter Pinski           : DLPNO-MP2, DLPNO-MP2 Gradient
   Christoph Reimann      : Effective Core Potentials
   Marius Retegan         : Local ZFS, SOC
   Christoph Riplinger    : Optimizer, TS searches, QM/MM, DLPNO-CCSD(T), (RO)-DLPNO pert. Triples
   Tobias Risthaus        : Range-separated hybrids, TD-DFT gradient, RPA, STAB
   Michael Roemelt        : Original ROCIS implementation
   Masaaki Saitow         : Open-shell DLPNO-CCSD energy and density
   Barbara Sandhoefer     : DKH picture change effects
   Avijit Sen             : IP-ROCIS
   Kantharuban Sivalingam : CASSCF convergence, NEVPT2, FIC-MRCI
   Bernardo de Souza      : ESD, SOC TD-DFT
   Georgi Stoychev        : AutoAux, RI-MP2 NMR, DLPNO-MP2 response
   Willem Van den Heuvel  : Paramagnetic NMR
   Boris Wezisla          : Elementary symmetry handling
   Frank Wennmohs         : Technical directorship


 We gratefully acknowledge several colleagues who have allowed us to
 interface, adapt or use parts of their codes:
   Stefan Grimme, W. Hujo, H. Kruse, P. Pracht,  : VdW corrections, initial TS optimization,
                  C. Bannwarth, S. Ehlert          DFT functionals, gCP, sTDA/sTD-DF
   Ed Valeev, F. Pavosevic, A. Kumar             : LibInt (2-el integral package), F12 methods
   Garnet Chan, S. Sharma, J. Yang, R. Olivares  : DMRG
   Ulf Ekstrom                                   : XCFun DFT Library
   Mihaly Kallay                                 : mrcc  (arbitrary order and MRCC methods)
   Jiri Pittner, Ondrej Demel                    : Mk-CCSD
   Frank Weinhold                                : gennbo (NPA and NBO analysis)
   Christopher J. Cramer and Donald G. Truhlar   : smd solvation model
   Lars Goerigk                                  : TD-DFT with DH, B97 family of functionals
   V. Asgeirsson, H. Jonsson                     : NEB implementation
   FAccTs GmbH                                   : IRC, NEB, NEB-TS, DLPNO-Multilevel, CI-OPT
                                                   MM, QMMM, 2- and 3-layer-ONIOM, Crystal-QMMM,
                                                   LR-CPCM, SF, NACMEs, symmetry and pop. for TD-DFT,
                                                   nearIR, NL-DFT gradient (VV10), updates on ESD,
                                                   ML-optimized integration grids
   S Lehtola, MJT Oliveira, MAL Marques          : LibXC Library
   Liviu Ungur et al                             : ANISO software


 Your calculation uses the libint2 library for the computation of 2-el integrals
 For citations please refer to: http://libint.valeyev.net

 Your ORCA version has been built with support for libXC version: 5.1.0
 For citations please refer to: https://tddft.org/programs/libxc/

 This ORCA versions uses:
   CBLAS   interface :  Fast vector & matrix operations
   LAPACKE interface :  Fast linear algebra routines
   SCALAPACK package :  Parallel linear algebra routines
   Shared memory     :  Shared parallel matrices
   BLAS/LAPACK       :  OpenBLAS 0.3.15  USE64BITINT DYNAMIC_ARCH NO_AFFINITY SkylakeX SINGLE_THREADED
        Core in use  :  SkylakeX
   Copyright (c) 2011-2014, The OpenBLAS Project


Your calculation utilizes the atom-pairwise dispersion correction
with the Becke-Johnson damping scheme (D3BJ)
Cite in your paper:
S.Grimme, S.Ehrlich, L.Goerigk, J Comput Chem, (2011), 32, 1456–1465 
S.Grimme, J.Antony, S.Ehrlich and H.Krieg, J.Chem.Phys., 132, (2010), 154104 
   

================================================================================

----- Orbital basis set information -----
Your calculation utilizes the basis: aug-cc-pVTZ 
    H, B-Ne : Obtained from the ccRepo (grant-hill.group.shef.ac.uk/ccrepo) Feb. 2017
              R. A. Kendall, T. H. Dunning, Jr., R. J. Harrison, J. Chem. Phys. 96, 6796 (1992)
         He : Obtained from the ccRepo (grant-hill.group.shef.ac.uk/ccrepo) Feb. 2017
              D. E. Woon, T. H. Dunning, Jr., J. Chem. Phys. 100, 2975 (1994)
  Li-Be, Na : Obtained from the ccRepo (grant-hill.group.shef.ac.uk/ccrepo) Feb. 2017
              B. P. Prascher, D. E. Woon, K. A. Peterson, T. H. Dunning, Jr., A. K. Wilson, Theor. Chem. Acc. 128, 69 (2011)
         Mg : Obtained from the Peterson Research Group Website (tyr0.chem.wsu.edu/~kipeters) Feb. 2017
              B. P. Prascher, D. E. Woon, K. A. Peterson, T. H. Dunning, Jr., A. K. Wilson, Theor. Chem. Acc. 128, 69 (2011)
      Al-Ar : Obtained from the ccRepo (grant-hill.group.shef.ac.uk/ccrepo) Feb. 2017
              D. E. Woon, T. H. Dunning, Jr., J. Chem. Phys. 98, 1358 (1993)
      Sc-Zn : Obtained from the ccRepo (grant-hill.group.shef.ac.uk/ccrepo) Feb. 2017
              N. B. Balabanov, K. A. Peterson, J. Chem. Phys. 123, 064107 (2005)
              N. B. Balabanov, K. A. Peterson, J. Chem. Phys. 125, 074110 (2006)
      Ga-Kr : Obtained from the ccRepo (grant-hill.group.shef.ac.uk/ccrepo) Feb. 2017
              A. K. Wilson, D. E. Woon, K. A. Peterson, T. H. Dunning, Jr., J. Chem. Phys. 110, 7667 (1999)
     Ag, Au : Obtained from the Peterson Research Group Website (tyr0.chem.wsu.edu/~kipeters) Feb. 2017
              K. A. Peterson, C. Puzzarini, Theor. Chem. Acc. 114, 283 (2005)

----- AuxJ basis set information -----
Your calculation utilizes the auxiliary basis: def2/J
   F. Weigend, Phys. Chem. Chem. Phys. 8, 1057 (2006).

----- AuxC basis set information -----
Your calculation utilizes the auxiliary basis: aug-cc-pVTZ/C 
  H-He, B-F, Al-Ar, Ga-Kr : Obtained from the EMSL Basis Set Exchange (bse.pnl.gov) Feb. 2017
                            F. Weigend, A. Kohn, C. Hattig, J. Chem. Phys. 116, 3175 (2002)
                   Be, Mg : Obtained from the TURBOMOLE 7.0 basis set library
                            C. Haettig, Phys. Chem. Chem. Phys. 7, 59 (2005)
                       Ne : Obtained from the EMSL Basis Set Exchange (bse.pnl.gov) Feb. 2017
                            C. Haettig, Phys. Chem. Chem. Phys. 7, 59 (2005)
                            F. Weigend, A. Kohn, C. Hattig, J. Chem. Phys. 116, 3175 (2002)
                    Sc-Zn : Obtained from the EMSL Basis Set Exchange (bse.pnl.gov) Feb. 2017
                            J. G. Hill, J. A. Platts, J. Chem. Phys. 128, 044104 (2008)

================================================================================
                                        WARNINGS
                       Please study these warnings very carefully!
================================================================================


WARNING: No MP2 level density has been requested!
         To caclulate MP2 level properties use
         %mp2 Density relaxed end
         or
         %mp2 Density unrelaxed end
         Otherwise for double-hybrid DFT only the energy is correct!

WARNING: There are different parametrizations of Gershom Martin's DSD-DFs
         for use with and without D3(BJ)!
         You are using the D3(BJ) parametrized version,
         consistent with the GMTKN55 benchmark (L. Goerigk et al., PCCP 2017, 19, 32184)

WARNING: The frozen-core approximation is turned on by default for 
         the MP2 part of double-hybrid DFT.

INFO   : the flag for use of the SHARK integral package has been found!

================================================================================
                                       INPUT FILE
================================================================================
NAME = A.34.avtz.com
|  1> !PAL8
|  2> !RI-DSD-PBEP86 D3BJ aug-cc-pVTZ aug-cc-pVTZ/C TightSCF
|  3> %maxcore 3000
|  4> 
|  5> 
|  6> * xyz -1 1
|  7> C -1.5601655599  0.9382322567 -0.9061406603
|  8> C -2.6711142849  0.7531765245 -1.7334199787
|  9> Cl -4.2914871615  0.7508302768 -1.0878954545
| 10> C -2.5555748013  0.5452293893 -3.1055489436
| 11> H -3.4476531138  0.3992821211 -3.7084327236
| 12> C -1.2921235883  0.522020391 -3.6895617161
| 13> C -0.1578654109  0.7155939308 -2.8849945324
| 14> C  1.1852737192  0.7215366402 -3.5095999557
| 15> C -0.3076859423  0.9206485505 -1.5108942681
| 16> S -1.6662011919  1.1645713858  0.9243435568
| 17> O -0.2451299043  1.3350196793  1.2675961601
| 18> O -2.5268665233  2.3639168953  1.0290948919
| 19> N -2.244988899 -0.1461950897  1.5377061064
| 20> H -3.2617564392 -0.0566734039  1.5059113952
| 21> N -1.1327792794  0.3527903481 -5.0774751585
| 22> C  0.0875141017 -0.2985102028 -5.4825192102
| 23> N  1.1918421645  0.3842754173 -4.8587642724
| 24> H -1.9541555835 -0.0212546607 -5.5390600511
| 25> O  2.2210031193  1.0199282194 -2.9431296549
| 26> H  0.5694219522  1.0734967702 -0.8880662829
| 27> H  2.1174178103  0.2391912553 -5.2437203055
| 28> C  0.0912613791 -1.8093738392 -5.1123520832
| 29> H  0.1881140581 -0.2303433004 -6.5710521366
| 30> H  0.0000643428 -1.9552036157 -4.0355533434
| 31> Cl  1.6183918553 -2.5668253168 -5.6383757265
| 32> Cl -1.2973478191 -2.6305716222 -5.883635652
| 33> *
| 34> 
| 35>                          ****END OF INPUT****
================================================================================

                       ****************************
                       * Single Point Calculation *
                       ****************************

---------------------------------
CARTESIAN COORDINATES (ANGSTROEM)
---------------------------------
  C     -1.560166    0.938232   -0.906141
  C     -2.671114    0.753177   -1.733420
  Cl    -4.291487    0.750830   -1.087895
  C     -2.555575    0.545229   -3.105549
  H     -3.447653    0.399282   -3.708433
  C     -1.292124    0.522020   -3.689562
  C     -0.157865    0.715594   -2.884995
  C      1.185274    0.721537   -3.509600
  C     -0.307686    0.920649   -1.510894
  S     -1.666201    1.164571    0.924344
  O     -0.245130    1.335020    1.267596
  O     -2.526867    2.363917    1.029095
  N     -2.244989   -0.146195    1.537706
  H     -3.261756   -0.056673    1.505911
  N     -1.132779    0.352790   -5.077475
  C      0.087514   -0.298510   -5.482519
  N      1.191842    0.384275   -4.858764
  H     -1.954156   -0.021255   -5.539060
  O      2.221003    1.019928   -2.943130
  H      0.569422    1.073497   -0.888066
  H      2.117418    0.239191   -5.243720
  C      0.091261   -1.809374   -5.112352
  H      0.188114   -0.230343   -6.571052
  H      0.000064   -1.955204   -4.035553
  Cl     1.618392   -2.566825   -5.638376
  Cl    -1.297348   -2.630572   -5.883636

----------------------------
CARTESIAN COORDINATES (A.U.)
----------------------------
  NO LB      ZA    FRAG     MASS         X           Y           Z
   0 C     6.0000    0    12.011   -2.948286    1.773002   -1.712358
   1 C     6.0000    0    12.011   -5.047674    1.423297   -3.275689
   2 Cl   17.0000    0    35.453   -8.109735    1.418864   -2.055824
   3 C     6.0000    0    12.011   -4.829336    1.030334   -5.868637
   4 H     1.0000    0     1.008   -6.515120    0.754534   -7.007922
   5 C     6.0000    0    12.011   -2.441760    0.986476   -6.972261
   6 C     6.0000    0    12.011   -0.298322    1.352277   -5.451850
   7 C     6.0000    0    12.011    2.239843    1.363507   -6.632183
   8 C     6.0000    0    12.011   -0.581442    1.739774   -2.855176
   9 S    16.0000    0    32.060   -3.148664    2.200721    1.746756
  10 O     8.0000    0    15.999   -0.463228    2.522822    2.395410
  11 O     8.0000    0    15.999   -4.775086    4.467156    1.944708
  12 N     7.0000    0    14.007   -4.242414   -0.276269    2.905843
  13 H     1.0000    0     1.008   -6.163826   -0.107097    2.845760
  14 N     7.0000    0    14.007   -2.140643    0.666677   -9.595038
  15 C     6.0000    0    12.011    0.165378   -0.564103  -10.360460
  16 N     7.0000    0    14.007    2.252255    0.726175   -9.181734
  17 H     1.0000    0     1.008   -3.692819   -0.040165  -10.467307
  18 O     8.0000    0    15.999    4.197088    1.927385   -5.561709
  19 H     1.0000    0     1.008    1.076052    2.028615   -1.678202
  20 H     1.0000    0     1.008    4.001340    0.452006   -9.909195
  21 C     6.0000    0    12.011    0.172459   -3.419221   -9.660945
  22 H     1.0000    0     1.008    0.355484   -0.435286  -12.417489
  23 H     1.0000    0     1.008    0.000122   -3.694799   -7.626091
  24 Cl   17.0000    0    35.453    3.058317   -4.850597  -10.654986
  25 Cl   17.0000    0    35.453   -2.451632   -4.971060  -11.118460

--------------------------------
INTERNAL COORDINATES (ANGSTROEM)
--------------------------------
 C      0   0   0     0.000000000000     0.00000000     0.00000000
 C      1   0   0     1.397441864355     0.00000000     0.00000000
 Cl     2   1   0     1.744223516480   121.30698568     0.00000000
 C      2   1   3     1.392598032322   122.48715658   180.79725865
 H      4   2   1     1.086541841309   119.91063910   179.58466590
 C      4   2   1     1.392091427916   119.41587399   359.81741349
 C      6   4   2     1.404044401505   119.37341427   359.67648965
 C      7   6   4     1.481279843047   119.43500282   181.36698048
 C      1   2   3     1.390949785353   117.17987201   179.81175625
 S      1   2   3     1.847470006703   123.85879569     1.17502699
 O     10   1   2     1.471841898735   100.94352320   180.98462048
 O     10   1   2     1.479914627956   101.70054273   301.60157564
 N     10   1   2     1.558626825265   107.95032568    64.07964462
 H     13  10   1     1.021195998177   106.48468259   273.16812347
 N      6   4   2     1.407243099039   121.23385554   181.82433693
 C     15   6   4     1.441308095924   115.30109372   209.58643491
 N      8   7   6     1.390695017034   114.35464848   353.43067549
 H     15   6   4     1.013720530828   113.68503470   342.43074582
 O      8   7   6     1.217645895348   125.17610933   171.70087075
 H      9   1   2     1.086552132209   118.41659459   179.33635836
 H     17   8   7     1.012882440158   114.06441080   189.62890200
 C     16  15   6     1.555553493711   111.96652109    70.67312861
 H     16  15   6     1.095294941862   109.20385548   189.31241541
 H     22  16  15     1.090448875087   111.38766011   299.42917326
 Cl    22  16  15     1.783973403829   110.13811595   179.85002416
 Cl    22  16  15     1.788149783332   109.97063137    58.41734139

---------------------------
INTERNAL COORDINATES (A.U.)
---------------------------
 C      0   0   0     0.000000000000     0.00000000     0.00000000
 C      1   0   0     2.640782411707     0.00000000     0.00000000
 Cl     2   1   0     3.296104762493   121.30698568     0.00000000
 C      2   1   3     2.631628895725   122.48715658   180.79725865
 H      4   2   1     2.053266513120   119.91063910   179.58466590
 C      4   2   1     2.630671552140   119.41587399   359.81741349
 C      6   4   2     2.653259398709   119.37341427   359.67648965
 C      7   6   4     2.799213231056   119.43500282   181.36698048
 C      1   2   3     2.628514160354   117.17987201   179.81175625
 S      1   2   3     3.491212353303   123.85879569     1.17502699
 O     10   1   2     2.781378101039   100.94352320   180.98462048
 O     10   1   2     2.796633348420   101.70054273   301.60157564
 N     10   1   2     2.945377844735   107.95032568    64.07964462
 H     13  10   1     1.929780765611   106.48468259   273.16812347
 N      6   4   2     2.659304061035   121.23385554   181.82433693
 C     15   6   4     2.723677575900   115.30109372   209.58643491
 N      8   7   6     2.628032718003   114.35464848   353.43067549
 H     15   6   4     1.915654179598   113.68503470   342.43074582
 O      8   7   6     2.301017270301   125.17610933   171.70087075
 H      9   1   2     2.053285960103   118.41659459   179.33635836
 H     17   8   7     1.914070417757   114.06441080   189.62890200
 C     16  15   6     2.939570089777   111.96652109    70.67312861
 H     16  15   6     2.069807475987   109.20385548   189.31241541
 H     22  16  15     2.060649736957   111.38766011   299.42917326
 Cl    22  16  15     3.371221163435   110.13811595   179.85002416
 Cl    22  16  15     3.379113376928   109.97063137    58.41734139

---------------------
BASIS SET INFORMATION
---------------------
There are 6 groups of distinct atoms

 Group   1 Type C   : 19s6p3d2f contracted to 5s4p3d2f pattern {88111/3111/111/11}
 Group   2 Type Cl  : 42s17p3d2f contracted to 6s5p3d2f pattern {131313111/77111/111/11}
 Group   3 Type H   : 6s3p2d contracted to 4s3p2d pattern {3111/111/11}
 Group   4 Type S   : 42s17p3d2f contracted to 6s5p3d2f pattern {131313111/77111/111/11}
 Group   5 Type O   : 19s6p3d2f contracted to 5s4p3d2f pattern {88111/3111/111/11}
 Group   6 Type N   : 19s6p3d2f contracted to 5s4p3d2f pattern {88111/3111/111/11}

Atom   0C    basis set group =>   1
Atom   1C    basis set group =>   1
Atom   2Cl   basis set group =>   2
Atom   3C    basis set group =>   1
Atom   4H    basis set group =>   3
Atom   5C    basis set group =>   1
Atom   6C    basis set group =>   1
Atom   7C    basis set group =>   1
Atom   8C    basis set group =>   1
Atom   9S    basis set group =>   4
Atom  10O    basis set group =>   5
Atom  11O    basis set group =>   5
Atom  12N    basis set group =>   6
Atom  13H    basis set group =>   3
Atom  14N    basis set group =>   6
Atom  15C    basis set group =>   1
Atom  16N    basis set group =>   6
Atom  17H    basis set group =>   3
Atom  18O    basis set group =>   5
Atom  19H    basis set group =>   3
Atom  20H    basis set group =>   3
Atom  21C    basis set group =>   1
Atom  22H    basis set group =>   3
Atom  23H    basis set group =>   3
Atom  24Cl   basis set group =>   2
Atom  25Cl   basis set group =>   2
---------------------------------
AUXILIARY/J BASIS SET INFORMATION
---------------------------------
There are 6 groups of distinct atoms

 Group   1 Type C   : 12s5p4d2f1g contracted to 6s4p3d1f1g pattern {711111/2111/211/2/1}
 Group   2 Type Cl  : 14s5p5d2f1g contracted to 8s4p3d1f1g pattern {71111111/2111/311/2/1}
 Group   3 Type H   : 5s2p1d contracted to 3s1p1d pattern {311/2/1}
 Group   4 Type S   : 14s5p5d2f1g contracted to 8s4p3d1f1g pattern {71111111/2111/311/2/1}
 Group   5 Type O   : 12s5p4d2f1g contracted to 6s4p3d1f1g pattern {711111/2111/211/2/1}
 Group   6 Type N   : 12s5p4d2f1g contracted to 6s4p3d1f1g pattern {711111/2111/211/2/1}

Atom   0C    basis set group =>   1
Atom   1C    basis set group =>   1
Atom   2Cl   basis set group =>   2
Atom   3C    basis set group =>   1
Atom   4H    basis set group =>   3
Atom   5C    basis set group =>   1
Atom   6C    basis set group =>   1
Atom   7C    basis set group =>   1
Atom   8C    basis set group =>   1
Atom   9S    basis set group =>   4
Atom  10O    basis set group =>   5
Atom  11O    basis set group =>   5
Atom  12N    basis set group =>   6
Atom  13H    basis set group =>   3
Atom  14N    basis set group =>   6
Atom  15C    basis set group =>   1
Atom  16N    basis set group =>   6
Atom  17H    basis set group =>   3
Atom  18O    basis set group =>   5
Atom  19H    basis set group =>   3
Atom  20H    basis set group =>   3
Atom  21C    basis set group =>   1
Atom  22H    basis set group =>   3
Atom  23H    basis set group =>   3
Atom  24Cl   basis set group =>   2
Atom  25Cl   basis set group =>   2
---------------------------------
AUXILIARY/C BASIS SET INFORMATION
---------------------------------
There are 6 groups of distinct atoms

 Group   1 Type C   : 9s7p6d4f2g contracted to 9s7p6d4f2g pattern {111111111/1111111/111111/1111/11}
 Group   2 Type Cl  : 11s9p8d6f3g contracted to 11s9p8d6f3g pattern {11111111111/111111111/11111111/111111/111}
 Group   3 Type H   : 5s4p3d2f contracted to 5s4p3d2f pattern {11111/1111/111/11}
 Group   4 Type S   : 11s9p8d6f3g contracted to 11s9p8d6f3g pattern {11111111111/111111111/11111111/111111/111}
 Group   5 Type O   : 9s7p6d4f2g contracted to 9s7p6d4f2g pattern {111111111/1111111/111111/1111/11}
 Group   6 Type N   : 9s7p6d4f2g contracted to 9s7p6d4f2g pattern {111111111/1111111/111111/1111/11}

Atom   0C    basis set group =>   1
Atom   1C    basis set group =>   1
Atom   2Cl   basis set group =>   2
Atom   3C    basis set group =>   1
Atom   4H    basis set group =>   3
Atom   5C    basis set group =>   1
Atom   6C    basis set group =>   1
Atom   7C    basis set group =>   1
Atom   8C    basis set group =>   1
Atom   9S    basis set group =>   4
Atom  10O    basis set group =>   5
Atom  11O    basis set group =>   5
Atom  12N    basis set group =>   6
Atom  13H    basis set group =>   3
Atom  14N    basis set group =>   6
Atom  15C    basis set group =>   1
Atom  16N    basis set group =>   6
Atom  17H    basis set group =>   3
Atom  18O    basis set group =>   5
Atom  19H    basis set group =>   3
Atom  20H    basis set group =>   3
Atom  21C    basis set group =>   1
Atom  22H    basis set group =>   3
Atom  23H    basis set group =>   3
Atom  24Cl   basis set group =>   2
Atom  25Cl   basis set group =>   2


           ************************************************************
           *        Program running with 8 parallel MPI-processes     *
           *              working on a common directory               *
           ************************************************************
------------------------------------------------------------------------------
                           ORCA GTO INTEGRAL CALCULATION
                           -- RI-GTO INTEGRALS CHOSEN --
------------------------------------------------------------------------------
------------------------------------------------------------------------------
                   ___                                                        
                  /   \      - P O W E R E D   B Y -                         
                 /     \                                                     
                 |  |  |   _    _      __       _____    __    __             
                 |  |  |  | |  | |    /  \     |  _  \  |  |  /  |          
                  \  \/   | |  | |   /    \    | | | |  |  | /  /          
                 / \  \   | |__| |  /  /\  \   | |_| |  |  |/  /          
                |  |  |   |  __  | /  /__\  \  |    /   |      \           
                |  |  |   | |  | | |   __   |  |    \   |  |\   \          
                \     /   | |  | | |  |  |  |  | |\  \  |  | \   \       
                 \___/    |_|  |_| |__|  |__|  |_| \__\ |__|  \__/        
                                                                              
                      - O R C A' S   B I G   F R I E N D -                    
                                      &                                       
                       - I N T E G R A L  F E E D E R -                       
                                                                              
 v1 FN, 2020, v2 2021                                                         
------------------------------------------------------------------------------


Reading SHARK input file A.34.avtz.SHARKINP.tmp ... ok
----------------------
SHARK INTEGRAL PACKAGE
----------------------

Number of atoms                             ...     26
Number of basis functions                   ...   1241
Number of shells                            ...    487
Maximum angular momentum                    ...      3
Integral batch strategy                     ... SHARK/LIBINT Hybrid
RI-J (if used) integral strategy            ... SPLIT-RIJ (Revised 2003 algorithm where possible)
Printlevel                                  ...      1
Contraction scheme used                     ... PARTIAL GENERAL contraction
Coulomb Range Separation                    ... NOT USED
Exchange Range Separation                   ... NOT USED
Finite Nucleus Model                        ... NOT USED
Auxiliary Coulomb fitting basis             ... AVAILABLE
   # of basis functions in Aux-J            ...   1016
   # of shells in Aux-J                     ...    328
   Maximum angular momentum in Aux-J        ...      4
Auxiliary J/K fitting basis                 ... NOT available
Auxiliary Correlation fitting basis         ... AVAILABLE
   # of basis functions in Aux-C            ...   2500
   # of shells in Aux-C                     ...    666
   Maximum angular momentum in Aux-C        ...      4
Auxiliary 'external' fitting basis          ... NOT available
Integral threshold                          ...     2.500000e-11
Primitive cut-off                           ...     2.500000e-12
Primitive pair pre-selection threshold      ...     2.500000e-12

Calculating pre-screening integrals         ... done (  0.1 sec) Dimension = 487
Calculating pre-screening integrals (ORCA)  ... done (  0.3 sec) Dimension = 337
Organizing shell pair data                  ... done (  0.8 sec)
Shell pair information
Total number of shell pairs                 ...    118828
Shell pairs after pre-screening             ...     77380
Total number of primitive shell pairs       ...    141312
Primitive shell pairs kept                  ...     86634
          la=0 lb=0:  16353 shell pairs
          la=1 lb=0:  20435 shell pairs
          la=1 lb=1:   5712 shell pairs
          la=2 lb=0:  12783 shell pairs
          la=2 lb=1:   6900 shell pairs
          la=2 lb=2:   2187 shell pairs
          la=3 lb=0:   6547 shell pairs
          la=3 lb=1:   3564 shell pairs
          la=3 lb=2:   2280 shell pairs
          la=3 lb=3:    619 shell pairs

Calculating one electron integrals          ... done (  0.2 sec)
Calculating RI/J V-Matrix + Cholesky decomp.... done (  0.1 sec)
Calculating RI/C V-Matrix + Cholesky decomp.... done (  0.3 sec)
Calculating Nuclear repulsion               ... done (  0.0 sec) ENN=   2031.716121803657 Eh

SHARK setup successfully completed in   2.7 seconds

Maximum memory used throughout the entire GTOINT-calculation: 107.1 MB


           ************************************************************
           *        Program running with 8 parallel MPI-processes     *
           *              working on a common directory               *
           ************************************************************
-------------------------------------------------------------------------------
                                 ORCA SCF
-------------------------------------------------------------------------------

------------
SCF SETTINGS
------------
Hamiltonian:
 Density Functional     Method          .... DFT(GTOs)
 Exchange Functional    Exchange        .... PBE
   PBE kappa parameter   XKappa         ....  0.804000
   PBE mue parameter    XMuePBE         ....  0.219520
 Correlation Functional Correlation     .... P86
 LDA part of GGA corr.  LDAOpt          .... VWN-5
 Gradients option       PostSCFGGA      .... off
 Hybrid DFT is turned on
   Fraction HF Exchange ScalHFX         ....  0.700000
   Scaling of DF-GGA-X  ScalDFX         ....  0.300000
   Scaling of DF-GGA-C  ScalDFC         ....  0.430000
   Scaling of DF-LDA-C  ScalLDAC        ....  0.430000
   Perturbative correction              ....  1.000000
   Density functional embedding theory  .... OFF
   NL short-range parameter             .... 14.200000
 RI-approximation to the Coulomb term is turned on
   Number of AuxJ basis functions       .... 1016
   RIJ-COSX (HFX calculated with COS-X)).... on


General Settings:
 Integral files         IntName         .... A.34.avtz
 Hartree-Fock type      HFTyp           .... RHF
 Total Charge           Charge          ....   -1
 Multiplicity           Mult            ....    1
 Number of Electrons    NEL             ....  174
 Basis Dimension        Dim             .... 1051
 Nuclear Repulsion      ENuc            ....   2031.7161218037 Eh

Convergence Acceleration:
 DIIS                   CNVDIIS         .... on
   Start iteration      DIISMaxIt       ....    12
   Startup error        DIISStart       ....  0.200000
   # of expansion vecs  DIISMaxEq       ....     5
   Bias factor          DIISBfac        ....   1.050
   Max. coefficient     DIISMaxC        ....  10.000
 Trust-Rad. Augm. Hess. CNVTRAH         .... auto
   Auto Start mean grad. ratio tolernc. ....  1.125000
   Auto Start start iteration           ....    20
   Auto Start num. interpolation iter.  ....    10
   Max. Number of Micro iterations      ....    16
   Max. Number of Macro iterations      .... Maxiter - #DIIS iter
   Number of Davidson start vectors     ....     2
   Converg. threshold I  (grad. norm)   ....   1.000e-05
   Converg. threshold II (energy diff.) ....   1.000e-08
   Grad. Scal. Fac. for Micro threshold ....   0.100
   Minimum threshold for Micro iter.    ....   0.010
   NR start threshold (gradient norm)   ....   0.001
   Initial trust radius                 ....   0.400
   Minimum AH scaling param. (alpha)    ....   1.000
   Maximum AH scaling param. (alpha)    .... 1000.000
   Orbital update algorithm             .... Taylor
   White noise on init. David. guess    .... on
   Maximum white noise                  ....   0.010
   Quad. conv. algorithm                .... NR
 SOSCF                  CNVSOSCF        .... on
   Start iteration      SOSCFMaxIt      ....   150
   Startup grad/error   SOSCFStart      ....  0.003300
 Level Shifting         CNVShift        .... on
   Level shift para.    LevelShift      ....    0.2500
   Turn off err/grad.   ShiftErr        ....    0.0010
 Zerner damping         CNVZerner       .... off
 Static damping         CNVDamp         .... on
   Fraction old density DampFac         ....    0.7000
   Max. Damping (<1)    DampMax         ....    0.9800
   Min. Damping (>=0)   DampMin         ....    0.0000
   Turn off err/grad.   DampErr         ....    0.1000
 Fernandez-Rico         CNVRico         .... off

SCF Procedure:
 Maximum # iterations   MaxIter         ....   125
 SCF integral mode      SCFMode         .... Direct
   Integral package                     .... SHARK and LIBINT hybrid scheme
 Reset frequency        DirectResetFreq ....    20
 Integral Threshold     Thresh          ....  2.500e-11 Eh
 Primitive CutOff       TCut            ....  2.500e-12 Eh

Convergence Tolerance:
 Convergence Check Mode ConvCheckMode   .... Total+1el-Energy
 Convergence forced     ConvForced      .... 0
 Energy Change          TolE            ....  1.000e-08 Eh
 1-El. energy change                    ....  1.000e-05 Eh
 Orbital Gradient       TolG            ....  1.000e-05
 Orbital Rotation angle TolX            ....  1.000e-05
 DIIS Error             TolErr          ....  5.000e-07


Diagonalization of the overlap matrix:
Smallest eigenvalue                        ... 1.693e-07
Time for diagonalization                   ...    0.154 sec
Threshold for overlap eigenvalues          ... 1.000e-08
Number of eigenvalues below threshold      ... 0
Time for construction of square roots      ...    0.099 sec
Total time needed                          ...    0.258 sec

Time for model grid setup =    0.261 sec

------------------------------
INITIAL GUESS: MODEL POTENTIAL
------------------------------
Loading Hartree-Fock densities                     ... done
Calculating cut-offs                               ... done
Initializing the effective Hamiltonian             ... done
Setting up the integral package (SHARK)            ... done
Starting the Coulomb interaction                   ... done (   1.0 sec)
Reading the grid                                   ... done
Mapping shells                                     ... done
Starting the XC term evaluation                    ... done (   1.0 sec)
  promolecular density results
     # of electrons  =    172.992252385
     EX              =   -199.374161777
     EC              =     -0.050768654
     EX+EC           =   -199.424930431
Transforming the Hamiltonian                       ... done (   0.1 sec)
Diagonalizing the Hamiltonian                      ... done (   0.2 sec)
Back transforming the eigenvectors                 ... done (   0.0 sec)
Now organizing SCF variables                       ... done
                      ------------------
                      INITIAL GUESS DONE (   2.5 sec)
                      ------------------
-------------------
DFT GRID GENERATION
-------------------

General Integration Accuracy     IntAcc      ... 4.388
Radial Grid Type                 RadialGrid  ... OptM3 with GC (2021)
Angular Grid (max. ang.)         AngularGrid ... 4 (Lebedev-302)
Angular grid pruning method      GridPruning ... 4 (adaptive)
Weight generation scheme         WeightScheme... Becke
Basis function cutoff            BFCut       ... 1.0000e-11
Integration weight cutoff        WCut        ... 1.0000e-14
Angular grids for H and He will be reduced by one unit
Partially contracted basis set               ... off
Rotationally invariant grid construction     ... off

Total number of grid points                  ...   147310
Total number of batches                      ...     2315
Average number of points per batch           ...       63
Average number of grid points per atom       ...     5666
Time for grid setup =    1.016 sec

--------------------
COSX GRID GENERATION
--------------------

GRIDX 1
-------
General Integration Accuracy     IntAcc      ... 3.816
Radial Grid Type                 RadialGrid  ... OptM3 with GC (2021)
Angular Grid (max. ang.)         AngularGrid ... 1 (Lebedev-50)
Angular grid pruning method      GridPruning ... 4 (adaptive)
Weight generation scheme         WeightScheme... Becke
Basis function cutoff            BFCut       ... 1.0000e-11
Integration weight cutoff        WCut        ... 1.0000e-14
Angular grids for H and He will be reduced by one unit
Partially contracted basis set               ... on
Rotationally invariant grid construction     ... off

Total number of grid points                  ...    18146
Total number of batches                      ...      294
Average number of points per batch           ...       61
Average number of grid points per atom       ...      698
UseSFitting                                  ... on

GRIDX 2
-------
General Integration Accuracy     IntAcc      ... 4.020
Radial Grid Type                 RadialGrid  ... OptM3 with GC (2021)
Angular Grid (max. ang.)         AngularGrid ... 2 (Lebedev-110)
Angular grid pruning method      GridPruning ... 4 (adaptive)
Weight generation scheme         WeightScheme... Becke
Basis function cutoff            BFCut       ... 1.0000e-11
Integration weight cutoff        WCut        ... 1.0000e-14
Angular grids for H and He will be reduced by one unit
Partially contracted basis set               ... on
Rotationally invariant grid construction     ... off

Total number of grid points                  ...    44842
Total number of batches                      ...      715
Average number of points per batch           ...       62
Average number of grid points per atom       ...     1725
UseSFitting                                  ... on

GRIDX 3
-------
General Integration Accuracy     IntAcc      ... 4.338
Radial Grid Type                 RadialGrid  ... OptM3 with GC (2021)
Angular Grid (max. ang.)         AngularGrid ... 3 (Lebedev-194)
Angular grid pruning method      GridPruning ... 4 (adaptive)
Weight generation scheme         WeightScheme... Becke
Basis function cutoff            BFCut       ... 1.0000e-11
Integration weight cutoff        WCut        ... 1.0000e-14
Angular grids for H and He will be reduced by one unit
Partially contracted basis set               ... on
Rotationally invariant grid construction     ... off

Total number of grid points                  ...   100770
Total number of batches                      ...     1586
Average number of points per batch           ...       63
Average number of grid points per atom       ...     3876
UseSFitting                                  ... on

Time for X-Grid setup             =    2.763 sec

 re-compute Schwartz prescreening matrix in partically contracted basis (1) ...done (   0.130 sec)
--------------
SCF ITERATIONS
--------------
ITER       Energy         Delta-E        Max-DP      RMS-DP      [F,P]     Damp
               ***  Starting incremental Fock matrix formation  ***
  0  -2511.3530016775   0.000000000000 0.37115619  0.00216982  0.3268274 0.7000
  1  -2511.5938476244  -0.240845946894 0.31658940  0.00180703  0.1787274 0.7000
                               ***Turning on DIIS***
  2  -2511.7141028931  -0.120255268704 0.65732812  0.00413535  0.0814506 0.0000
  3  -2511.9213022752  -0.207199382111 0.13529815  0.00080446  0.0779606 0.0000
  4  -2511.9500604234  -0.028758148158 0.05323123  0.00036723  0.0073635 0.0000
  5  -2511.9511028990  -0.001042475687 0.03380912  0.00020416  0.0064181 0.0000
                      *** Initiating the SOSCF procedure ***
                           *** Shutting down DIIS ***
                      *** Re-Reading the Fockian *** 
                      *** Removing any level shift *** 
ITER      Energy       Delta-E        Grad      Rot      Max-DP    RMS-DP
  6  -2511.95141050  -0.0003075962  0.000848  0.000848  0.079203  0.000240
               *** Restarting incremental Fock matrix formation ***
  7  -2511.95153428  -0.0001237889  0.000483  0.000968  0.252584  0.001582
  8  -2511.95155755  -0.0000232683  0.000225  0.000856  0.137733  0.000740
  9  -2511.95156073  -0.0000031817  0.000139  0.000129  0.120578  0.000567
 10  -2511.95156265  -0.0000019195  0.000018  0.000063  0.158285  0.000662
 11  -2511.95156275  -0.0000001010  0.000013  0.000049  0.093665  0.000393
 12  -2511.95156278  -0.0000000225  0.000004  0.000021  0.099059  0.000408
                  ***Gradient check signals convergence***
              ***Rediagonalizing the Fockian in SOSCF/NRSCF***

               *****************************************************
               *                     SUCCESS                       *
               *           SCF CONVERGED AFTER  13 CYCLES          *
               *****************************************************

Old exchange energy                            =   -141.281227462 Eh
New exchange energy                            =   -141.281275571 Eh
Exchange energy change after final integration =     -0.000048109 Eh
Total energy after final integration           =  -2511.951610870 Eh
Final COS-X integration done in                =    56.170 sec

----------------
TOTAL SCF ENERGY
----------------

Total Energy       :        -2511.95161087 Eh          -68353.67837 eV

Components:
Nuclear Repulsion  :         2031.71612180 Eh           55285.80635 eV
Electronic Energy  :        -4543.66773267 Eh         -123639.48472 eV
One Electron Energy:        -7523.75325152 Eh         -204731.73433 eV
Two Electron Energy:         2980.08551885 Eh           81092.24962 eV
Max COSX asymmetry :            0.00002985 Eh               0.00081 eV

Virial components:
Potential Energy   :        -5019.02811289 Eh         -136574.69828 eV
Kinetic Energy     :         2507.07650202 Eh           68221.01991 eV
Virial Ratio       :            2.00194454


DFT components:
N(Alpha)           :       87.000142176149 electrons
N(Beta)            :       87.000142176149 electrons
N(Total)           :      174.000284352298 electrons
E(X)               :      -60.292507980386 Eh       
E(C)               :       -3.045049617936 Eh       
E(XC)              :      -63.337557598322 Eh       
DFET-embed. en.    :        0.000000000000 Eh       

---------------
SCF CONVERGENCE
---------------

  Last Energy change         ...    1.6553e-08  Tolerance :   1.0000e-08
  Last MAX-Density change    ...    4.8850e-15  Tolerance :   1.0000e-07
  Last RMS-Density change    ...    2.8979e-17  Tolerance :   5.0000e-09
  Last Orbital Gradient      ...    2.3630e-06  Tolerance :   1.0000e-05
  Last Orbital Rotation      ...    4.6820e-06  Tolerance :   1.0000e-05

             **** THE GBW FILE WAS UPDATED (A.34.avtz.gbw) ****
             **** DENSITY A.34.avtz.scfp WAS UPDATED ****
             **** ENERGY FILE WAS UPDATED (A.34.avtz.en.tmp) ****
             **** THE GBW FILE WAS UPDATED (A.34.avtz.gbw) ****
             **** DENSITY A.34.avtz.scfp WAS UPDATED ****
----------------
ORBITAL ENERGIES
----------------

  NO   OCC          E(Eh)            E(eV) 
   0   2.0000    -103.563103     -2818.0953 
   1   2.0000    -103.561833     -2818.0607 
   2   2.0000    -103.511206     -2816.6831 
   3   2.0000     -90.853572     -2472.2514 
   4   2.0000     -19.909429      -541.7631 
   5   2.0000     -19.831812      -539.6510 
   6   2.0000     -19.831477      -539.6419 
   7   2.0000     -15.053123      -409.6163 
   8   2.0000     -15.052275      -409.5932 
   9   2.0000     -14.891095      -405.2073 
  10   2.0000     -10.906595      -296.7836 
  11   2.0000     -10.874195      -295.9019 
  12   2.0000     -10.871584      -295.8309 
  13   2.0000     -10.819314      -294.4085 
  14   2.0000     -10.814126      -294.2673 
  15   2.0000     -10.758773      -292.7611 
  16   2.0000     -10.757920      -292.7379 
  17   2.0000     -10.751865      -292.5731 
  18   2.0000     -10.745873      -292.4101 
  19   2.0000     -10.111445      -275.1464 
  20   2.0000     -10.110128      -275.1106 
  21   2.0000     -10.059088      -273.7217 
  22   2.0000      -8.594816      -233.8768 
  23   2.0000      -7.684541      -209.1070 
  24   2.0000      -7.683267      -209.0723 
  25   2.0000      -7.679968      -208.9825 
  26   2.0000      -7.679893      -208.9805 
  27   2.0000      -7.678619      -208.9458 
  28   2.0000      -7.678554      -208.9441 
  29   2.0000      -7.632229      -207.6835 
  30   2.0000      -7.627824      -207.5637 
  31   2.0000      -7.627472      -207.5541 
  32   2.0000      -6.381530      -173.6503 
  33   2.0000      -6.379190      -173.5866 
  34   2.0000      -6.378205      -173.5598 
  35   2.0000      -1.185982       -32.2722 
  36   2.0000      -1.144243       -31.1364 
  37   2.0000      -1.121891       -30.5282 
  38   2.0000      -1.035275       -28.1713 
  39   2.0000      -1.027905       -27.9707 
  40   2.0000      -1.023979       -27.8639 
  41   2.0000      -0.984062       -26.7777 
  42   2.0000      -0.943386       -25.6708 
  43   2.0000      -0.926398       -25.2086 
  44   2.0000      -0.886799       -24.1310 
  45   2.0000      -0.850077       -23.1318 
  46   2.0000      -0.833893       -22.6914 
  47   2.0000      -0.795959       -21.6592 
  48   2.0000      -0.719249       -19.5717 
  49   2.0000      -0.703983       -19.1564 
  50   2.0000      -0.680296       -18.5118 
  51   2.0000      -0.621431       -16.9100 
  52   2.0000      -0.605206       -16.4685 
  53   2.0000      -0.584044       -15.8927 
  54   2.0000      -0.561827       -15.2881 
  55   2.0000      -0.537459       -14.6250 
  56   2.0000      -0.536898       -14.6097 
  57   2.0000      -0.508406       -13.8344 
  58   2.0000      -0.490950       -13.3594 
  59   2.0000      -0.486016       -13.2252 
  60   2.0000      -0.470729       -12.8092 
  61   2.0000      -0.463873       -12.6226 
  62   2.0000      -0.459573       -12.5056 
  63   2.0000      -0.442742       -12.0476 
  64   2.0000      -0.441606       -12.0167 
  65   2.0000      -0.431137       -11.7318 
  66   2.0000      -0.412499       -11.2247 
  67   2.0000      -0.400340       -10.8938 
  68   2.0000      -0.395357       -10.7582 
  69   2.0000      -0.376776       -10.2526 
  70   2.0000      -0.369309       -10.0494 
  71   2.0000      -0.366005        -9.9595 
  72   2.0000      -0.361066        -9.8251 
  73   2.0000      -0.349963        -9.5230 
  74   2.0000      -0.341064        -9.2808 
  75   2.0000      -0.317375        -8.6362 
  76   2.0000      -0.300580        -8.1792 
  77   2.0000      -0.294094        -8.0027 
  78   2.0000      -0.289647        -7.8817 
  79   2.0000      -0.281869        -7.6700 
  80   2.0000      -0.265055        -7.2125 
  81   2.0000      -0.250846        -6.8259 
  82   2.0000      -0.235522        -6.4089 
  83   2.0000      -0.222432        -6.0527 
  84   2.0000      -0.202917        -5.5217 
  85   2.0000      -0.200112        -5.4453 
  86   2.0000      -0.163863        -4.4589 
  87   0.0000       0.073025         1.9871 
  88   0.0000       0.086508         2.3540 
  89   0.0000       0.097031         2.6403 
  90   0.0000       0.101585         2.7643 
  91   0.0000       0.112860         3.0711 
  92   0.0000       0.113764         3.0957 
  93   0.0000       0.116682         3.1751 
  94   0.0000       0.121492         3.3060 
  95   0.0000       0.131841         3.5876 
  96   0.0000       0.134719         3.6659 
  97   0.0000       0.139093         3.7849 
  98   0.0000       0.144030         3.9193 
  99   0.0000       0.148290         4.0352 
 100   0.0000       0.153537         4.1779 
 101   0.0000       0.154309         4.1990 
 102   0.0000       0.161376         4.3913 
 103   0.0000       0.165213         4.4957 
 104   0.0000       0.167233         4.5506 
 105   0.0000       0.169991         4.6257 
 106   0.0000       0.174777         4.7559 
 107   0.0000       0.177628         4.8335 
 108   0.0000       0.181261         4.9324 
 109   0.0000       0.184031         5.0077 
 110   0.0000       0.186877         5.0852 
 111   0.0000       0.191636         5.2147 
 112   0.0000       0.195957         5.3323 
 113   0.0000       0.197093         5.3632 
 114   0.0000       0.201455         5.4819 
 115   0.0000       0.204302         5.5593 
 116   0.0000       0.208015         5.6604 
 117   0.0000       0.210505         5.7281 
 118   0.0000       0.213158         5.8003 
 119   0.0000       0.218555         5.9472 
 120   0.0000       0.221025         6.0144 
 121   0.0000       0.222533         6.0554 
 122   0.0000       0.225416         6.1339 
 123   0.0000       0.227394         6.1877 
 124   0.0000       0.230562         6.2739 
 125   0.0000       0.232505         6.3268 
 126   0.0000       0.235904         6.4193 
 127   0.0000       0.240351         6.5403 
 128   0.0000       0.241683         6.5765 
 129   0.0000       0.249254         6.7826 
 130   0.0000       0.253653         6.9023 
 131   0.0000       0.258397         7.0313 
 132   0.0000       0.262825         7.1518 
 133   0.0000       0.264340         7.1931 
 134   0.0000       0.268542         7.3074 
 135   0.0000       0.271006         7.3744 
 136   0.0000       0.274770         7.4769 
 137   0.0000       0.278326         7.5736 
 138   0.0000       0.279699         7.6110 
 139   0.0000       0.281420         7.6578 
 140   0.0000       0.284965         7.7543 
 141   0.0000       0.287566         7.8251 
 142   0.0000       0.287919         7.8347 
 143   0.0000       0.291656         7.9364 
 144   0.0000       0.294025         8.0008 
 145   0.0000       0.299345         8.1456 
 146   0.0000       0.304144         8.2762 
 147   0.0000       0.306269         8.3340 
 148   0.0000       0.308093         8.3836 
 149   0.0000       0.313999         8.5443 
 150   0.0000       0.317098         8.6287 
 151   0.0000       0.323006         8.7894 
 152   0.0000       0.328085         8.9276 
 153   0.0000       0.332948         9.0600 
 154   0.0000       0.336065         9.1448 
 155   0.0000       0.336739         9.1631 
 156   0.0000       0.341025         9.2798 
 157   0.0000       0.343865         9.3570 
 158   0.0000       0.344127         9.3642 
 159   0.0000       0.347677         9.4608 
 160   0.0000       0.352431         9.5901 
 161   0.0000       0.355889         9.6842 
 162   0.0000       0.356930         9.7126 
 163   0.0000       0.363703         9.8969 
 164   0.0000       0.367418         9.9979 
 165   0.0000       0.371529        10.1098 
 166   0.0000       0.372987        10.1495 
 167   0.0000       0.376145        10.2354 
 168   0.0000       0.377401        10.2696 
 169   0.0000       0.379506        10.3269 
 170   0.0000       0.382764        10.4155 
 171   0.0000       0.385198        10.4818 
 172   0.0000       0.388575        10.5737 
 173   0.0000       0.391876        10.6635 
 174   0.0000       0.393329        10.7030 
 175   0.0000       0.396406        10.7868 
 176   0.0000       0.399063        10.8591 
 177   0.0000       0.401015        10.9122 
 178   0.0000       0.406335        11.0569 
 179   0.0000       0.409784        11.1508 
 180   0.0000       0.413909        11.2630 
 181   0.0000       0.417464        11.3598 
 182   0.0000       0.418315        11.3829 
 183   0.0000       0.423056        11.5119 
 184   0.0000       0.425480        11.5779 
 185   0.0000       0.427846        11.6423 
 186   0.0000       0.428777        11.6676 
 187   0.0000       0.435190        11.8421 
 188   0.0000       0.436252        11.8710 
 189   0.0000       0.442382        12.0378 
 190   0.0000       0.444161        12.0862 
 191   0.0000       0.448915        12.2156 
 192   0.0000       0.450728        12.2649 
 193   0.0000       0.457455        12.4480 
 194   0.0000       0.462086        12.5740 
 195   0.0000       0.465077        12.6554 
 196   0.0000       0.470038        12.7904 
 197   0.0000       0.473110        12.8740 
 198   0.0000       0.474087        12.9006 
 199   0.0000       0.475746        12.9457 
 200   0.0000       0.483350        13.1526 
 201   0.0000       0.484382        13.1807 
 202   0.0000       0.488803        13.3010 
 203   0.0000       0.491887        13.3849 
 204   0.0000       0.499284        13.5862 
 205   0.0000       0.500166        13.6102 
 206   0.0000       0.504242        13.7211 
 207   0.0000       0.508198        13.8288 
 208   0.0000       0.511201        13.9105 
 209   0.0000       0.514156        13.9909 
 210   0.0000       0.515100        14.0166 
 211   0.0000       0.517482        14.0814 
 212   0.0000       0.520604        14.1664 
 213   0.0000       0.524039        14.2598 
 214   0.0000       0.526131        14.3167 
 215   0.0000       0.527039        14.3415 
 216   0.0000       0.533872        14.5274 
 217   0.0000       0.534736        14.5509 
 218   0.0000       0.536609        14.6019 
 219   0.0000       0.543511        14.7897 
 220   0.0000       0.544979        14.8296 
 221   0.0000       0.546858        14.8807 
 222   0.0000       0.554334        15.0842 
 223   0.0000       0.555675        15.1207 
 224   0.0000       0.558606        15.2005 
 225   0.0000       0.560674        15.2567 
 226   0.0000       0.564430        15.3589 
 227   0.0000       0.568473        15.4689 
 228   0.0000       0.571348        15.5472 
 229   0.0000       0.576951        15.6996 
 230   0.0000       0.578611        15.7448 
 231   0.0000       0.586868        15.9695 
 232   0.0000       0.588252        16.0072 
 233   0.0000       0.592085        16.1114 
 234   0.0000       0.595503        16.2045 
 235   0.0000       0.601397        16.3648 
 236   0.0000       0.603213        16.4143 
 237   0.0000       0.607102        16.5201 
 238   0.0000       0.611199        16.6316 
 239   0.0000       0.614659        16.7257 
 240   0.0000       0.617996        16.8165 
 241   0.0000       0.620194        16.8763 
 242   0.0000       0.624020        16.9804 
 243   0.0000       0.629612        17.1326 
 244   0.0000       0.636648        17.3241 
 245   0.0000       0.637344        17.3430 
 246   0.0000       0.640753        17.4358 
 247   0.0000       0.645062        17.5530 
 248   0.0000       0.647572        17.6213 
 249   0.0000       0.651841        17.7375 
 250   0.0000       0.653331        17.7780 
 251   0.0000       0.665000        18.0956 
 252   0.0000       0.668252        18.1841 
 253   0.0000       0.670953        18.2576 
 254   0.0000       0.676338        18.4041 
 255   0.0000       0.679334        18.4856 
 256   0.0000       0.684656        18.6304 
 257   0.0000       0.687594        18.7104 
 258   0.0000       0.692764        18.8511 
 259   0.0000       0.695655        18.9297 
 260   0.0000       0.697533        18.9808 
 261   0.0000       0.704855        19.1801 
 262   0.0000       0.710268        19.3274 
 263   0.0000       0.711699        19.3663 
 264   0.0000       0.714812        19.4510 
 265   0.0000       0.717604        19.5270 
 266   0.0000       0.722450        19.6589 
 267   0.0000       0.730738        19.8844 
 268   0.0000       0.733096        19.9486 
 269   0.0000       0.739444        20.1213 
 270   0.0000       0.741373        20.1738 
 271   0.0000       0.749455        20.3937 
 272   0.0000       0.750258        20.4155 
 273   0.0000       0.752183        20.4679 
 274   0.0000       0.762175        20.7398 
 275   0.0000       0.762778        20.7562 
 276   0.0000       0.772887        21.0313 
 277   0.0000       0.775395        21.0996 
 278   0.0000       0.779363        21.2075 
 279   0.0000       0.780322        21.2336 
 280   0.0000       0.785799        21.3827 
 281   0.0000       0.789559        21.4850 
 282   0.0000       0.792268        21.5587 
 283   0.0000       0.795890        21.6573 
 284   0.0000       0.800260        21.7762 
 285   0.0000       0.803752        21.8712 
 286   0.0000       0.810161        22.0456 
 287   0.0000       0.813228        22.1291 
 288   0.0000       0.818501        22.2725 
 289   0.0000       0.821589        22.3566 
 290   0.0000       0.823255        22.4019 
 291   0.0000       0.825836        22.4721 
 292   0.0000       0.838013        22.8035 
 293   0.0000       0.840210        22.8633 
 294   0.0000       0.842812        22.9341 
 295   0.0000       0.847975        23.0746 
 296   0.0000       0.857934        23.3456 
 297   0.0000       0.861965        23.4553 
 298   0.0000       0.863912        23.5082 
 299   0.0000       0.865867        23.5614 
 300   0.0000       0.871986        23.7279 
 301   0.0000       0.876539        23.8518 
 302   0.0000       0.880457        23.9584 
 303   0.0000       0.888557        24.1789 
 304   0.0000       0.894087        24.3293 
 305   0.0000       0.900447        24.5024 
 306   0.0000       0.901160        24.5218 
 307   0.0000       0.905208        24.6320 
 308   0.0000       0.911669        24.8078 
 309   0.0000       0.912324        24.8256 
 310   0.0000       0.917869        24.9765 
 311   0.0000       0.922972        25.1153 
 312   0.0000       0.925217        25.1764 
 313   0.0000       0.929246        25.2861 
 314   0.0000       0.932999        25.3882 
 315   0.0000       0.936423        25.4814 
 316   0.0000       0.936490        25.4832 
 317   0.0000       0.943428        25.6720 
 318   0.0000       0.949263        25.8308 
 319   0.0000       0.951172        25.8827 
 320   0.0000       0.952472        25.9181 
 321   0.0000       0.957750        26.0617 
 322   0.0000       0.960019        26.1234 
 323   0.0000       0.964156        26.2360 
 324   0.0000       0.968837        26.3634 
 325   0.0000       0.972589        26.4655 
 326   0.0000       0.975355        26.5407 
 327   0.0000       0.979681        26.6585 
 328   0.0000       0.980883        26.6912 
 329   0.0000       0.991906        26.9911 
 330   0.0000       0.993726        27.0407 
 331   0.0000       0.997973        27.1562 
 332   0.0000       1.001404        27.2496 
 333   0.0000       1.005623        27.3644 
 334   0.0000       1.011217        27.5166 
 335   0.0000       1.013873        27.5889 
 336   0.0000       1.016792        27.6683 
 337   0.0000       1.019204        27.7339 
 338   0.0000       1.022701        27.8291 
 339   0.0000       1.027435        27.9579 
 340   0.0000       1.031557        28.0701 
 341   0.0000       1.037060        28.2198 
 342   0.0000       1.038684        28.2640 
 343   0.0000       1.041474        28.3400 
 344   0.0000       1.043148        28.3855 
 345   0.0000       1.049867        28.5683 
 346   0.0000       1.051955        28.6251 
 347   0.0000       1.058537        28.8042 
 348   0.0000       1.059499        28.8304 
 349   0.0000       1.064315        28.9615 
 350   0.0000       1.066172        29.0120 
 351   0.0000       1.071436        29.1552 
 352   0.0000       1.075112        29.2553 
 353   0.0000       1.080945        29.4140 
 354   0.0000       1.087298        29.5869 
 355   0.0000       1.088628        29.6231 
 356   0.0000       1.092123        29.7182 
 357   0.0000       1.096080        29.8259 
 358   0.0000       1.097971        29.8773 
 359   0.0000       1.100335        29.9416 
 360   0.0000       1.102971        30.0134 
 361   0.0000       1.106033        30.0967 
 362   0.0000       1.110090        30.2071 
 363   0.0000       1.115690        30.3595 
 364   0.0000       1.120954        30.5027 
 365   0.0000       1.122623        30.5481 
 366   0.0000       1.126779        30.6612 
 367   0.0000       1.133588        30.8465 
 368   0.0000       1.135382        30.8953 
 369   0.0000       1.139112        30.9968 
 370   0.0000       1.144978        31.1564 
 371   0.0000       1.147917        31.2364 
 372   0.0000       1.152744        31.3678 
 373   0.0000       1.157798        31.5053 
 374   0.0000       1.164397        31.6848 
 375   0.0000       1.168394        31.7936 
 376   0.0000       1.175606        31.9899 
 377   0.0000       1.177282        32.0355 
 378   0.0000       1.181934        32.1621 
 379   0.0000       1.184814        32.2404 
 380   0.0000       1.186357        32.2824 
 381   0.0000       1.188792        32.3487 
 382   0.0000       1.194528        32.5048 
 383   0.0000       1.197887        32.5962 
 384   0.0000       1.200815        32.6758 
 385   0.0000       1.208595        32.8876 
 386   0.0000       1.214199        33.0400 
 387   0.0000       1.215735        33.0818 
 388   0.0000       1.220858        33.2212 
 389   0.0000       1.222352        33.2619 
 390   0.0000       1.225600        33.3503 
 391   0.0000       1.228060        33.4172 
 392   0.0000       1.236628        33.6504 
 393   0.0000       1.238372        33.6978 
 394   0.0000       1.243024        33.8244 
 395   0.0000       1.246848        33.9285 
 396   0.0000       1.253612        34.1125 
 397   0.0000       1.258524        34.2462 
 398   0.0000       1.262950        34.3666 
 399   0.0000       1.263876        34.3918 
 400   0.0000       1.270357        34.5682 
 401   0.0000       1.271485        34.5989 
 402   0.0000       1.278625        34.7932 
 403   0.0000       1.283337        34.9214 
 404   0.0000       1.290728        35.1225 
 405   0.0000       1.296528        35.2803 
 406   0.0000       1.300808        35.3968 
 407   0.0000       1.304716        35.5031 
 408   0.0000       1.315043        35.7841 
 409   0.0000       1.316743        35.8304 
 410   0.0000       1.318931        35.8899 
 411   0.0000       1.320416        35.9304 
 412   0.0000       1.330127        36.1946 
 413   0.0000       1.331945        36.2441 
 414   0.0000       1.339191        36.4412 
 415   0.0000       1.344419        36.5835 
 416   0.0000       1.348476        36.6939 
 417   0.0000       1.353922        36.8421 
 418   0.0000       1.360351        37.0170 
 419   0.0000       1.363050        37.0905 
 420   0.0000       1.370245        37.2863 
 421   0.0000       1.372331        37.3430 
 422   0.0000       1.376022        37.4435 
 423   0.0000       1.379070        37.5264 
 424   0.0000       1.383698        37.6523 
 425   0.0000       1.387783        37.7635 
 426   0.0000       1.395192        37.9651 
 427   0.0000       1.397185        38.0193 
 428   0.0000       1.403447        38.1897 
 429   0.0000       1.410263        38.3752 
 430   0.0000       1.412837        38.4453 
 431   0.0000       1.418752        38.6062 
 432   0.0000       1.423376        38.7320 
 433   0.0000       1.431394        38.9502 
 434   0.0000       1.438215        39.1358 
 435   0.0000       1.439126        39.1606 
 436   0.0000       1.454899        39.5898 
 437   0.0000       1.459427        39.7130 
 438   0.0000       1.464021        39.8380 
 439   0.0000       1.467022        39.9197 
 440   0.0000       1.471554        40.0430 
 441   0.0000       1.475539        40.1515 
 442   0.0000       1.481501        40.3137 
 443   0.0000       1.489394        40.5285 
 444   0.0000       1.491917        40.5971 
 445   0.0000       1.496985        40.7350 
 446   0.0000       1.499412        40.8011 
 447   0.0000       1.510652        41.1069 
 448   0.0000       1.517063        41.2814 
 449   0.0000       1.518189        41.3120 
 450   0.0000       1.522671        41.4340 
 451   0.0000       1.525377        41.5076 
 452   0.0000       1.530501        41.6470 
 453   0.0000       1.535193        41.7747 
 454   0.0000       1.539179        41.8832 
 455   0.0000       1.545719        42.0612 
 456   0.0000       1.551081        42.2071 
 457   0.0000       1.553421        42.2707 
 458   0.0000       1.559449        42.4348 
 459   0.0000       1.564320        42.5673 
 460   0.0000       1.567998        42.6674 
 461   0.0000       1.575439        42.8699 
 462   0.0000       1.583426        43.0872 
 463   0.0000       1.589014        43.2393 
 464   0.0000       1.591751        43.3137 
 465   0.0000       1.597458        43.4691 
 466   0.0000       1.601337        43.5746 
 467   0.0000       1.604881        43.6710 
 468   0.0000       1.609128        43.7866 
 469   0.0000       1.613041        43.8931 
 470   0.0000       1.617498        44.0144 
 471   0.0000       1.618523        44.0422 
 472   0.0000       1.624262        44.1984 
 473   0.0000       1.633116        44.4393 
 474   0.0000       1.641584        44.6698 
 475   0.0000       1.643942        44.7339 
 476   0.0000       1.648676        44.8627 
 477   0.0000       1.652519        44.9673 
 478   0.0000       1.658321        45.1252 
 479   0.0000       1.668763        45.4094 
 480   0.0000       1.670215        45.4489 
 481   0.0000       1.681226        45.7485 
 482   0.0000       1.684020        45.8245 
 483   0.0000       1.687987        45.9325 
 484   0.0000       1.695674        46.1416 
 485   0.0000       1.698765        46.2257 
 486   0.0000       1.703289        46.3489 
 487   0.0000       1.710994        46.5585 
 488   0.0000       1.718829        46.7717 
 489   0.0000       1.723471        46.8980 
 490   0.0000       1.728067        47.0231 
 491   0.0000       1.733013        47.1577 
 492   0.0000       1.734903        47.2091 
 493   0.0000       1.746414        47.5223 
 494   0.0000       1.748209        47.5712 
 495   0.0000       1.757613        47.8271 
 496   0.0000       1.764613        48.0176 
 497   0.0000       1.771068        48.1932 
 498   0.0000       1.774887        48.2971 
 499   0.0000       1.778501        48.3955 
 500   0.0000       1.781862        48.4869 
 501   0.0000       1.789065        48.6829 
 502   0.0000       1.792594        48.7790 
 503   0.0000       1.800715        49.0000 
 504   0.0000       1.806011        49.1441 
 505   0.0000       1.809451        49.2377 
 506   0.0000       1.814321        49.3702 
 507   0.0000       1.819934        49.5229 
 508   0.0000       1.821672        49.5702 
 509   0.0000       1.836053        49.9616 
 510   0.0000       1.841479        50.1092 
 511   0.0000       1.846094        50.2348 
 512   0.0000       1.849814        50.3360 
 513   0.0000       1.855919        50.5021 
 514   0.0000       1.864381        50.7324 
 515   0.0000       1.867642        50.8211 
 516   0.0000       1.874301        51.0023 
 517   0.0000       1.880165        51.1619 
 518   0.0000       1.888337        51.3843 
 519   0.0000       1.891900        51.4812 
 520   0.0000       1.900711        51.7210 
 521   0.0000       1.903925        51.8084 
 522   0.0000       1.908974        51.9458 
 523   0.0000       1.914113        52.0857 
 524   0.0000       1.917239        52.1707 
 525   0.0000       1.927926        52.4615 
 526   0.0000       1.929388        52.5013 
 527   0.0000       1.939161        52.7673 
 528   0.0000       1.940391        52.8007 
 529   0.0000       1.943645        52.8893 
 530   0.0000       1.952355        53.1263 
 531   0.0000       1.953506        53.1576 
 532   0.0000       1.960229        53.3405 
 533   0.0000       1.966223        53.5036 
 534   0.0000       1.973431        53.6998 
 535   0.0000       1.975300        53.7506 
 536   0.0000       1.979672        53.8696 
 537   0.0000       1.999077        54.3976 
 538   0.0000       2.001516        54.4640 
 539   0.0000       2.004071        54.5335 
 540   0.0000       2.025550        55.1180 
 541   0.0000       2.028412        55.1959 
 542   0.0000       2.033611        55.3374 
 543   0.0000       2.037593        55.4457 
 544   0.0000       2.042491        55.5790 
 545   0.0000       2.048928        55.7542 
 546   0.0000       2.059460        56.0407 
 547   0.0000       2.063785        56.1584 
 548   0.0000       2.072873        56.4057 
 549   0.0000       2.076273        56.4983 
 550   0.0000       2.090514        56.8858 
 551   0.0000       2.091715        56.9184 
 552   0.0000       2.102716        57.2178 
 553   0.0000       2.109691        57.4076 
 554   0.0000       2.112001        57.4705 
 555   0.0000       2.120231        57.6944 
 556   0.0000       2.128838        57.9286 
 557   0.0000       2.137833        58.1734 
 558   0.0000       2.148930        58.4754 
 559   0.0000       2.151061        58.5334 
 560   0.0000       2.151758        58.5523 
 561   0.0000       2.154153        58.6175 
 562   0.0000       2.166387        58.9504 
 563   0.0000       2.171861        59.0993 
 564   0.0000       2.178078        59.2685 
 565   0.0000       2.186778        59.5053 
 566   0.0000       2.195667        59.7471 
 567   0.0000       2.201560        59.9075 
 568   0.0000       2.209880        60.1339 
 569   0.0000       2.210486        60.1504 
 570   0.0000       2.219631        60.3992 
 571   0.0000       2.226243        60.5791 
 572   0.0000       2.230195        60.6867 
 573   0.0000       2.237000        60.8719 
 574   0.0000       2.241769        61.0016 
 575   0.0000       2.252297        61.2881 
 576   0.0000       2.256891        61.4131 
 577   0.0000       2.264283        61.6143 
 578   0.0000       2.275275        61.9134 
 579   0.0000       2.279362        62.0246 
 580   0.0000       2.288242        62.2662 
 581   0.0000       2.297605        62.5210 
 582   0.0000       2.300951        62.6121 
 583   0.0000       2.309437        62.8430 
 584   0.0000       2.310681        62.8768 
 585   0.0000       2.320234        63.1368 
 586   0.0000       2.328379        63.3584 
 587   0.0000       2.330714        63.4219 
 588   0.0000       2.350023        63.9474 
 589   0.0000       2.355357        64.0925 
 590   0.0000       2.361508        64.2599 
 591   0.0000       2.375144        64.6309 
 592   0.0000       2.383045        64.8460 
 593   0.0000       2.384662        64.8900 
 594   0.0000       2.393519        65.1310 
 595   0.0000       2.405058        65.4450 
 596   0.0000       2.414382        65.6987 
 597   0.0000       2.418694        65.8160 
 598   0.0000       2.431328        66.1598 
 599   0.0000       2.433911        66.2301 
 600   0.0000       2.437890        66.3384 
 601   0.0000       2.444733        66.5246 
 602   0.0000       2.446604        66.5755 
 603   0.0000       2.461871        66.9909 
 604   0.0000       2.465222        67.0821 
 605   0.0000       2.471166        67.2439 
 606   0.0000       2.479967        67.4833 
 607   0.0000       2.495026        67.8931 
 608   0.0000       2.499389        68.0118 
 609   0.0000       2.501872        68.0794 
 610   0.0000       2.514148        68.4134 
 611   0.0000       2.517338        68.5003 
 612   0.0000       2.523216        68.6602 
 613   0.0000       2.536167        69.0126 
 614   0.0000       2.543518        69.2126 
 615   0.0000       2.548888        69.3588 
 616   0.0000       2.557128        69.5830 
 617   0.0000       2.562698        69.7346 
 618   0.0000       2.568663        69.8969 
 619   0.0000       2.574208        70.0478 
 620   0.0000       2.575102        70.0721 
 621   0.0000       2.582108        70.2627 
 622   0.0000       2.593513        70.5731 
 623   0.0000       2.597342        70.6773 
 624   0.0000       2.605896        70.9100 
 625   0.0000       2.607241        70.9466 
 626   0.0000       2.619928        71.2919 
 627   0.0000       2.623419        71.3869 
 628   0.0000       2.628608        71.5281 
 629   0.0000       2.638082        71.7859 
 630   0.0000       2.649104        72.0858 
 631   0.0000       2.655401        72.2571 
 632   0.0000       2.658292        72.3358 
 633   0.0000       2.669615        72.6439 
 634   0.0000       2.674951        72.7891 
 635   0.0000       2.679397        72.9101 
 636   0.0000       2.681482        72.9668 
 637   0.0000       2.688919        73.1692 
 638   0.0000       2.697378        73.3994 
 639   0.0000       2.704409        73.5907 
 640   0.0000       2.708516        73.7025 
 641   0.0000       2.711524        73.7843 
 642   0.0000       2.722631        74.0866 
 643   0.0000       2.736858        74.4737 
 644   0.0000       2.738486        74.5180 
 645   0.0000       2.742254        74.6205 
 646   0.0000       2.748918        74.8019 
 647   0.0000       2.753081        74.9151 
 648   0.0000       2.762326        75.1667 
 649   0.0000       2.773998        75.4843 
 650   0.0000       2.774821        75.5067 
 651   0.0000       2.780974        75.6741 
 652   0.0000       2.786083        75.8132 
 653   0.0000       2.791591        75.9630 
 654   0.0000       2.800088        76.1943 
 655   0.0000       2.808989        76.4365 
 656   0.0000       2.823364        76.8276 
 657   0.0000       2.832140        77.0665 
 658   0.0000       2.834788        77.1385 
 659   0.0000       2.838384        77.2364 
 660   0.0000       2.844131        77.3927 
 661   0.0000       2.850315        77.5610 
 662   0.0000       2.859801        77.8191 
 663   0.0000       2.868768        78.0632 
 664   0.0000       2.871451        78.1362 
 665   0.0000       2.881481        78.4091 
 666   0.0000       2.883378        78.4607 
 667   0.0000       2.906435        79.0881 
 668   0.0000       2.908602        79.1471 
 669   0.0000       2.914771        79.3150 
 670   0.0000       2.927817        79.6700 
 671   0.0000       2.935458        79.8779 
 672   0.0000       2.939010        79.9745 
 673   0.0000       2.943563        80.0984 
 674   0.0000       2.954420        80.3939 
 675   0.0000       2.971353        80.8546 
 676   0.0000       2.974879        80.9506 
 677   0.0000       2.985661        81.2440 
 678   0.0000       2.992339        81.4257 
 679   0.0000       2.996765        81.5461 
 680   0.0000       3.020954        82.2043 
 681   0.0000       3.022581        82.2486 
 682   0.0000       3.029732        82.4432 
 683   0.0000       3.036881        82.6377 
 684   0.0000       3.039475        82.7083 
 685   0.0000       3.050085        82.9970 
 686   0.0000       3.070027        83.5397 
 687   0.0000       3.072413        83.6046 
 688   0.0000       3.079370        83.7939 
 689   0.0000       3.090361        84.0930 
 690   0.0000       3.092987        84.1645 
 691   0.0000       3.098488        84.3141 
 692   0.0000       3.105470        84.5041 
 693   0.0000       3.110785        84.6488 
 694   0.0000       3.122608        84.9705 
 695   0.0000       3.130536        85.1862 
 696   0.0000       3.131357        85.2086 
 697   0.0000       3.146811        85.6291 
 698   0.0000       3.150288        85.7237 
 699   0.0000       3.158056        85.9351 
 700   0.0000       3.161678        86.0336 
 701   0.0000       3.168728        86.2255 
 702   0.0000       3.186576        86.7111 
 703   0.0000       3.190487        86.8176 
 704   0.0000       3.197042        86.9959 
 705   0.0000       3.202852        87.1540 
 706   0.0000       3.220266        87.6279 
 707   0.0000       3.223788        87.7237 
 708   0.0000       3.230547        87.9077 
 709   0.0000       3.242031        88.2201 
 710   0.0000       3.250518        88.4511 
 711   0.0000       3.262773        88.7846 
 712   0.0000       3.266224        88.8785 
 713   0.0000       3.271709        89.0277 
 714   0.0000       3.277634        89.1890 
 715   0.0000       3.284455        89.3746 
 716   0.0000       3.294814        89.6565 
 717   0.0000       3.298242        89.7497 
 718   0.0000       3.305357        89.9433 
 719   0.0000       3.311968        90.1232 
 720   0.0000       3.321999        90.3962 
 721   0.0000       3.324971        90.4771 
 722   0.0000       3.330382        90.6243 
 723   0.0000       3.339608        90.8754 
 724   0.0000       3.346598        91.0656 
 725   0.0000       3.358056        91.3773 
 726   0.0000       3.371289        91.7374 
 727   0.0000       3.382773        92.0499 
 728   0.0000       3.388685        92.2108 
 729   0.0000       3.392440        92.3130 
 730   0.0000       3.408230        92.7427 
 731   0.0000       3.413660        92.8904 
 732   0.0000       3.416856        92.9774 
 733   0.0000       3.424057        93.1733 
 734   0.0000       3.438014        93.5531 
 735   0.0000       3.441139        93.6382 
 736   0.0000       3.445122        93.7465 
 737   0.0000       3.456283        94.0503 
 738   0.0000       3.460550        94.1664 
 739   0.0000       3.474754        94.5529 
 740   0.0000       3.477372        94.6241 
 741   0.0000       3.495672        95.1221 
 742   0.0000       3.503243        95.3281 
 743   0.0000       3.520152        95.7882 
 744   0.0000       3.526813        95.9695 
 745   0.0000       3.532330        96.1196 
 746   0.0000       3.545987        96.4912 
 747   0.0000       3.557442        96.8029 
 748   0.0000       3.567858        97.0863 
 749   0.0000       3.572669        97.2173 
 750   0.0000       3.580594        97.4329 
 751   0.0000       3.588481        97.6475 
 752   0.0000       3.597068        97.8812 
 753   0.0000       3.603400        98.0535 
 754   0.0000       3.621625        98.5494 
 755   0.0000       3.630639        98.7947 
 756   0.0000       3.640952        99.0753 
 757   0.0000       3.649311        99.3028 
 758   0.0000       3.657702        99.5311 
 759   0.0000       3.660621        99.6106 
 760   0.0000       3.676080       100.0312 
 761   0.0000       3.678159       100.0878 
 762   0.0000       3.684800       100.2685 
 763   0.0000       3.692757       100.4850 
 764   0.0000       3.707298       100.8807 
 765   0.0000       3.712456       101.0211 
 766   0.0000       3.724603       101.3516 
 767   0.0000       3.728004       101.4441 
 768   0.0000       3.735516       101.6486 
 769   0.0000       3.751557       102.0850 
 770   0.0000       3.764355       102.4333 
 771   0.0000       3.769035       102.5606 
[...]
      f-2     :     0.010065
      f+3     :     0.018194
      f-3     :     0.015959
 12 N s       :     2.918149  s :     2.918149
      pz      :     1.146187  p :     3.371604
      px      :     1.082111
      py      :     1.143306
      dz2     :     0.054048  d :     0.325369
      dxz     :     0.027884
      dyz     :     0.062275
      dx2y2   :     0.105403
      dxy     :     0.075759
      f0      :     0.009174  f :     0.113355
      f+1     :     0.009053
      f-1     :     0.019485
      f+2     :     0.015011
      f-2     :     0.014903
      f+3     :     0.022458
      f-3     :     0.023270
 13 H s       :     0.677458  s :     0.677458
      pz      :     0.180049  p :     0.582267
      px      :     0.237934
      py      :     0.164284
      dz2     :     0.034665  d :     0.368100
      dxz     :     0.121751
      dyz     :     0.005400
      dx2y2   :     0.079354
      dxy     :     0.126929
 14 N s       :     2.624450  s :     2.624450
      pz      :     0.963931  p :     2.982081
      px      :     0.923223
      py      :     1.094927
      dz2     :     0.146827  d :     0.607908
      dxz     :     0.180979
      dyz     :     0.097001
      dx2y2   :     0.090369
      dxy     :     0.092732
      f0      :     0.036061  f :     0.224516
      f+1     :     0.065964
      f-1     :     0.035191
      f+2     :     0.016104
      f-2     :     0.021944
      f+3     :     0.032453
      f-3     :     0.016800
 15 C s       :     2.412573  s :     2.412573
      pz      :     0.763986  p :     2.156132
      px      :     0.671974
      py      :     0.720172
      dz2     :     0.274039  d :     1.194797
      dxz     :     0.156223
      dyz     :     0.152627
      dx2y2   :     0.305076
      dxy     :     0.306832
      f0      :     0.056614  f :     0.643284
      f+1     :     0.089822
      f-1     :     0.065550
      f+2     :     0.090653
      f-2     :     0.071001
      f+3     :     0.181050
      f-3     :     0.088594
 16 N s       :     2.624659  s :     2.624659
      pz      :     0.986833  p :     3.003886
      px      :     0.945845
      py      :     1.071208
      dz2     :     0.161423  d :     0.600211
      dxz     :     0.170264
      dyz     :     0.089512
      dx2y2   :     0.101810
      dxy     :     0.077203
      f0      :     0.033905  f :     0.228518
      f+1     :     0.069663
      f-1     :     0.034698
      f+2     :     0.021348
      f-2     :     0.024666
      f+3     :     0.031234
      f-3     :     0.013003
 17 H s       :     0.580860  s :     0.580860
      pz      :     0.116437  p :     0.430877
      px      :     0.148342
      py      :     0.166098
      dz2     :     0.069517  d :     0.318356
      dxz     :     0.064319
      dyz     :     0.031666
      dx2y2   :     0.079338
      dxy     :     0.073516
 18 O s       :     3.188026  s :     3.188026
      pz      :     1.414355  p :     4.060957
      px      :     1.412117
      py      :     1.234485
      dz2     :     0.045576  d :     0.212100
      dxz     :     0.057838
      dyz     :     0.020956
      dx2y2   :     0.053801
      dxy     :     0.033928
      f0      :     0.005673  f :     0.074222
      f+1     :     0.022407
      f-1     :     0.002689
      f+2     :     0.011578
      f-2     :     0.011013
      f+3     :     0.011652
      f-3     :     0.009210
 19 H s       :     0.633305  s :     0.633305
      pz      :     0.131011  p :     0.332088
      px      :     0.129332
      py      :     0.071745
      dz2     :     0.078456  d :     0.253675
      dxz     :     0.060205
      dyz     :     0.026979
      dx2y2   :     0.048581
      dxy     :     0.039454
 20 H s       :     0.585282  s :     0.585282
      pz      :     0.110772  p :     0.409929
      px      :     0.161219
      py      :     0.137939
      dz2     :     0.056483  d :     0.304731
      dxz     :     0.079314
      dyz     :     0.020856
      dx2y2   :     0.065035
      dxy     :     0.083043
 21 C s       :     2.540205  s :     2.540205
      pz      :     0.875520  p :     2.421937
      px      :     0.718702
      py      :     0.827714
      dz2     :     0.275317  d :     1.448700
      dxz     :     0.277206
      dyz     :     0.198199
      dx2y2   :     0.331965
      dxy     :     0.366013
      f0      :     0.052623  f :     0.732479
      f+1     :     0.105088
      f-1     :     0.073252
      f+2     :     0.103874
      f-2     :     0.104359
      f+3     :     0.191303
      f-3     :     0.101981
 22 H s       :     0.631201  s :     0.631201
      pz      :     0.133810  p :     0.288466
      px      :     0.070675
      py      :     0.083981
      dz2     :     0.059248  d :     0.235621
      dxz     :     0.069789
      dyz     :     0.074973
      dx2y2   :     0.015504
      dxy     :     0.016107
 23 H s       :     0.660689  s :     0.660689
      pz      :     0.176667  p :     0.370965
      px      :     0.099532
      py      :     0.094767
      dz2     :     0.066562  d :     0.271223
      dxz     :     0.088780
      dyz     :     0.082987
      dx2y2   :     0.018541
      dxy     :     0.014353
 24 Cls       :     5.361392  s :     5.361392
      pz      :     3.580389  p :    10.401608
      px      :     3.298731
      py      :     3.522488
      dz2     :     0.036361  d :     0.244447
      dxz     :     0.058279
      dyz     :     0.014481
      dx2y2   :     0.075238
      dxy     :     0.060088
      f0      :     0.005196  f :     0.075571
      f+1     :     0.015839
      f-1     :     0.004505
      f+2     :     0.008530
      f-2     :     0.008562
      f+3     :     0.020399
      f-3     :     0.012541
 25 Cls       :     5.358882  s :     5.358882
      pz      :     3.537912  p :    10.400536
      px      :     3.355729
      py      :     3.506895
      dz2     :     0.045800  d :     0.244179
      dxz     :     0.052564
      dyz     :     0.021567
      dx2y2   :     0.070200
      dxy     :     0.054048
      f0      :     0.004367  f :     0.075203
      f+1     :     0.018337
      f-1     :     0.005997
      f+2     :     0.008002
      f-2     :     0.011053
      f+3     :     0.017914
      f-3     :     0.009533


                      *****************************
                      * MAYER POPULATION ANALYSIS *
                      *****************************

  NA   - Mulliken gross atomic population
  ZA   - Total nuclear charge
  QA   - Mulliken gross atomic charge
  VA   - Mayer's total valence
  BVA  - Mayer's bonded valence
  FA   - Mayer's free valence

  ATOM       NA         ZA         QA         VA         BVA        FA
  0 C      6.2244     6.0000    -0.2244     4.9680     4.9680     0.0000
  1 C      5.3206     6.0000     0.6794     2.9540     2.9540     0.0000
  2 Cl    17.5143    17.0000    -0.5143     0.4771     0.4771    -0.0000
  3 C      6.8626     6.0000    -0.8626     1.5353     1.5353     0.0000
  4 H      0.6205     1.0000     0.3795     0.8098     0.8098    -0.0000
  5 C      4.4903     6.0000     1.5097     0.5614     0.5614     0.0000
  6 C      4.8708     6.0000     1.1292     1.9217     1.9217     0.0000
  7 C      5.7235     6.0000     0.2765     2.3120     2.3120    -0.0000
  8 C      7.1364     6.0000    -1.1364     2.2492     2.2492    -0.0000
  9 S     13.9031    16.0000     2.0969     4.6258     4.6258     0.0000
 10 O      9.0154     8.0000    -1.0154     1.3205     1.3205     0.0000
 11 O      9.0406     8.0000    -1.0406     1.3607     1.3607     0.0000
 12 N      8.1158     7.0000    -1.1158     2.4788     2.4788     0.0000
 13 H      0.8720     1.0000     0.1280     1.0789     1.0789    -0.0000
 14 N      7.7755     7.0000    -0.7755     2.3719     2.3719    -0.0000
 15 C      5.6457     6.0000     0.3543     3.3415     3.3415     0.0000
 16 N      7.2633     7.0000    -0.2633     2.6536     2.6536     0.0000
 17 H      1.0719     1.0000    -0.0719     1.1643     1.1643     0.0000
 18 O      8.9733     8.0000    -0.9733     1.0298     1.0298     0.0000
 19 H      0.8992     1.0000     0.1008     1.3828     1.3828     0.0000
 20 H      0.8968     1.0000     0.1032     0.9955     0.9955     0.0000
 21 C      5.7379     6.0000     0.2621     3.3714     3.3714     0.0000
 22 H      0.5163     1.0000     0.4837     0.7291     0.7291     0.0000
 23 H      0.7036     1.0000     0.2964     0.8884     0.8884     0.0000
 24 Cl    17.4071    17.0000    -0.4071     0.7568     0.7568     0.0000
 25 Cl    17.3991    17.0000    -0.3991     0.7716     0.7716    -0.0000

  Mayer bond orders larger than 0.100000
B(  0-C ,  1-C ) :   1.6444 B(  0-C ,  2-Cl) :   0.6522 B(  0-C ,  5-C ) :  -0.2587 
B(  0-C ,  6-C ) :   0.3562 B(  0-C ,  7-C ) :   0.1006 B(  0-C ,  8-C ) :   1.2778 
B(  0-C ,  9-S ) :   0.7234 B(  0-C , 10-O ) :   0.1105 B(  0-C , 12-N ) :   0.2555 
B(  1-C ,  3-C ) :   1.2547 B(  1-C ,  5-C ) :   0.1659 B(  1-C , 12-N ) :  -0.1819 
B(  2-Cl,  5-C ) :  -0.1736 B(  3-C ,  4-H ) :   0.7436 B(  3-C ,  5-C ) :  -0.2525 
B(  3-C ,  6-C ) :   0.2677 B(  3-C ,  8-C ) :  -0.1114 B(  3-C , 14-N ) :  -0.2629 
B(  3-C , 15-C ) :   0.1587 B(  4-H ,  6-C ) :   0.1121 B(  5-C ,  6-C ) :   0.7226 
B(  5-C ,  7-C ) :   0.4416 B(  5-C ,  8-C ) :  -0.5229 B(  5-C , 14-N ) :   0.3067 
B(  5-C , 16-N ) :   0.1758 B(  5-C , 17-H ) :  -0.1056 B(  6-C , 16-N ) :  -0.2565 
B(  6-C , 18-O ) :   0.5466 B(  6-C , 19-H ) :  -0.1284 B(  7-C , 14-N ) :   0.1257 
B(  7-C , 15-C ) :  -0.1402 B(  7-C , 16-N ) :   0.9856 B(  7-C , 18-O ) :   0.7051 
B(  8-C ,  9-S ) :   0.1278 B(  8-C , 10-O ) :  -0.1100 B(  8-C , 18-O ) :  -0.1296 
B(  8-C , 19-H ) :   1.4320 B(  9-S , 10-O ) :   1.2161 B(  9-S , 11-O ) :   1.1671 
B(  9-S , 12-N ) :   1.3015 B( 11-O , 12-N ) :   0.1065 B( 12-N , 13-H ) :   0.9165 
B( 14-N , 15-C ) :   0.8520 B( 14-N , 17-H ) :   1.2211 B( 15-C , 16-N ) :   0.7545 
B( 15-C , 21-C ) :   0.9696 B( 15-C , 22-H ) :   0.8025 B( 16-N , 20-H ) :   1.0285 
B( 21-C , 23-H ) :   0.9234 B( 21-C , 24-Cl) :   0.6837 B( 21-C , 25-Cl) :   0.6759 


-------
TIMINGS
-------

Total SCF time: 0 days 0 hours 6 min 17 sec 

Total time                  ....     377.194 sec
Sum of individual times     ....     373.845 sec  ( 99.1%)

Fock matrix formation       ....     363.243 sec  ( 96.3%)
  Split-RI-J                ....      22.405 sec  (  6.2% of F)
  Chain of spheres X        ....     298.461 sec  ( 82.2% of F)
  XC integration            ....      40.468 sec  ( 11.1% of F)
    Basis function eval.    ....       6.254 sec  ( 15.5% of XC)
    Density eval.           ....      17.707 sec  ( 43.8% of XC)
    XC-Functional eval.     ....       0.324 sec  (  0.8% of XC)
    XC-Potential eval.      ....      14.396 sec  ( 35.6% of XC)
Diagonalization             ....       1.457 sec  (  0.4%)
Density matrix formation    ....       0.187 sec  (  0.0%)
Population analysis         ....       0.250 sec  (  0.1%)
Initial guess               ....       2.235 sec  (  0.6%)
Orbital Transformation      ....       0.000 sec  (  0.0%)
Orbital Orthonormalization  ....       0.000 sec  (  0.0%)
DIIS solution               ....       1.013 sec  (  0.3%)
SOSCF solution              ....       1.419 sec  (  0.4%)
Grid generation             ....       4.040 sec  (  1.1%)

Maximum memory used throughout the entire SCF-calculation: 280.4 MB


           ************************************************************
           *        Program running with 8 parallel MPI-processes     *
           *              working on a common directory               *
           ************************************************************

------------------------------------------------------------------------------
                                ORCA  MP2 
------------------------------------------------------------------------------

Freezing NCore=70 chemical core electrons

   <<< Use J-auxbasis for calculation of Separable RI-J derivative contributions (Dim=1016) >>> 


-------------
RI-MP2 ENERGY
-------------
Dimension of the basis                    ... 1051
Memory devoted to MP2                     ... 3000 MB   
Data format for buffers                   ... DOUBLE
Compression type for matrix containers    ... UNCOMPRESSED
Scaling for aa/bb pairs                   ...   2.500e-01
Scaling for ab pairs                      ...   5.300e-01
Overall scaling of the MP2 energy         ...   1.000e+00
Calculating two index integrals           ... done (    0.061 sec)
Cholesky decomposition of V**-1           ... done (    0.575 sec)

-----------------
RI-TRANSFORMATION (AUX index driven)
-----------------

Dimension of the orbital-basis         ... 1051
Dimension of the aux-basis             ... 2500
Transformation of internal/external MOs...   35-  86 to   87-1050
Number Format for Storage              ... Double (8 Byte)
Integral mode                          ... Direct

First Phase: integral generation and transformation of MO indices
  Aux angular momentum 0               ... done (    0.913 sec)
  Aux angular momentum 1               ... done (    1.720 sec)
  Aux angular momentum 2               ... done (    2.385 sec)
  Aux angular momentum 3               ... done (    2.398 sec)
  Aux angular momentum 4               ... done (    1.432 sec)
Closing buffer VIA ( 0.93 GB; CompressionRatio= 1.00)
  Phase 1 completed in     9.211 sec
Second Phase: sorting and transformation of aux index

IA-Transformation
Memory available                       ... 2877 MB 
Max. # MO pairs treated in a batch     ... 7    
# of internal orbitals                 ... 52
# batches for internal orbitals        ... 1
Closing buffer IAV ( 0.93 GB; CompressionRatio= 1.00)
(ia|v) transformation done in     1.785 sec

  Phase 2 completed in     3.026 sec
RI-Integral transformation completed in    12.241 sec
Opening buffers                              ... done

Starting loop over batches of integrals:

Operator 0  - window                       ... ( 35- 86)x( 87-1050)
Operator 0  - Memory available             ...  3000 MB
Operator 0  - Memory needed per MO         ...  18.4 MB
Operator 0  - Number of orbitals per batch ... 7
Operator 0  - Number of batches            ... 1

OPERATOR  0   PASS   0:  MOs    35 ...   41 +   42 ...   48 +   49 ...   55 +   56 ...   62
                            +   63 ...   69 +   70 ...   76 +   77 ...   83 +   84 ...   86
  Reading integrals       ... ok
  Internal MO  37
  Internal MO  40
Time spent in pair loops =     2.709 sec
Deleting buffer (Ka|jb)[aa] ...done

-----------------------------------------------
 RI-MP2 CORRELATION ENERGY:     -1.842423174 Eh
-----------------------------------------------


-------
TIMINGS
-------

Total time                :   39.665 sec
Integral trafo            :   12.259 sec ( 30.9%)
I/O of integrals          :    0.070 sec (  0.2%)
K(i,j) Operators          :    2.196 sec (  5.5%)
T(i,j) pair energies      :    0.279 sec (  0.7%)
V-calculation             :    0.061 sec (  0.2%)
V**(-1/2)                 :    0.575 sec (  1.5%)
Gamma(ia|P)               :    0.000 sec (  0.0%)
Gamma-Trafo               :    0.000 sec (  0.0%)
D(virtual)                :    0.000 sec (  0.0%)
D(internal)               :    0.000 sec (  0.0%)
W(virtual)                :    0.000 sec (  0.0%)
W(internal)               :    0.000 sec (  0.0%)
L(virtual)                :    0.000 sec (  0.0%)
L(internal)               :    0.000 sec (  0.0%)
G(D)                      :    0.000 sec (  0.0%)
G(Z)                      :    0.000 sec (  0.0%)
Z-Vector Solution         :    0.000 sec (  0.0%)
3-Index Derivative        :    0.000 sec (  0.0%)
2-Index Derivative        :    0.000 sec (  0.0%)
Separable Gradient (RIJ)  :    0.000 sec (  0.0%)
Separable Gradient (COSX) :    0.000 sec (  0.0%)


---------------------------------------
MP2 TOTAL ENERGY:    -2513.794034044 Eh
---------------------------------------

Maximum memory used throughout the entire MP2-calculation: 335.9 MB


-------------------------------------------------------------------------------
                          DFT DISPERSION CORRECTION                            
                                                                               
                              DFTD3 V3.1  Rev 1                                
                          USING Becke-Johnson damping                          
-------------------------------------------------------------------------------
The DSD-PBEP86 functional is recognized
Active option DFTDOPT                   ...         4   

molecular C6(AA) [au] = 13960.273056 


            DFT-D V3
 parameters
 s6 scaling factor         :     0.4180 
 a1 scaling factor         :     0.0000 
 s8 scaling factor         :     0.0000 
 a2 scaling factor         :     5.6500 
 ad hoc parameters k1-k3   :    16.0000     1.3333    -4.0000 

 Edisp/kcal,au: -16.102437600127  -0.025660864972 
 E6   /kcal   : -16.102437600 
 E8   /kcal   :  -0.000000000 
 % E8         :   0.000000000 

-------------------------   ----------------
Dispersion correction           -0.025660865
-------------------------   ----------------


-------------------------   --------------------
FINAL SINGLE POINT ENERGY     -2513.819694908627
-------------------------   --------------------


                            ***************************************
                            *     ORCA property calculations      *
                            ***************************************


  WARNING: The energy has been calculated at the MP2 level but the densities
           used in the property calculations are still SCF densities
           MP2 response densities have not been calculated 
           use %mp2 Density relaxed end
           or  %mp2 Density unrelaxed end

                                    ---------------------
                                    Active property flags
                                    ---------------------
   (+) Dipole Moment


------------------------------------------------------------------------------
                       ORCA ELECTRIC PROPERTIES CALCULATION
------------------------------------------------------------------------------

Dipole Moment Calculation                       ... on
Quadrupole Moment Calculation                   ... off
Polarizability Calculation                      ... off
GBWName                                         ... A.34.avtz.gbw
Electron density                                ... A.34.avtz.scfp
The origin for moment calculation is the CENTER OF MASS  = (-1.791298, -0.005251 -4.980769)

-------------
DIPOLE MOMENT
-------------
                                X             Y             Z
Electronic contribution:     -2.46346      -7.72944      -7.63777
Nuclear contribution   :      2.36509       5.49728       0.65651
                        -----------------------------------------
Total Dipole Moment    :     -0.09837      -2.23216      -6.98126
                        -----------------------------------------
Magnitude (a.u.)       :      7.33009
Magnitude (Debye)      :     18.63160



--------------------
Rotational spectrum 
--------------------
 
Rotational constants in cm-1:     0.016166     0.004834     0.004210 
Rotational constants in MHz :   484.637449   144.916051   126.211742 

 Dipole components along the rotational axes: 
x,y,z [a.u.] :    -6.655676     2.755758    -1.355716 
x,y,z [Debye]:   -16.917385     7.004580    -3.445955 

 

Timings for individual modules:

Sum of individual times         ...      424.510 sec (=   7.075 min)
GTO integral calculation        ...        4.320 sec (=   0.072 min)   1.0 %
SCF iterations                  ...      378.807 sec (=   6.313 min)  89.2 %
MP2 module                      ...       41.382 sec (=   0.690 min)   9.7 %
                             ****ORCA TERMINATED NORMALLY****
TOTAL RUN TIME: 0 days 0 hours 7 minutes 7 seconds 653 msec
