
                                 *****************
                                 * O   R   C   A *
                                 *****************

                                            #,                                       
                                            ###                                      
                                            ####                                     
                                            #####                                    
                                            ######                                   
                                           ########,                                 
                                     ,,################,,,,,                         
                               ,,#################################,,                 
                          ,,##########################################,,             
                       ,#########################################, ''#####,          
                    ,#############################################,,   '####,        
                  ,##################################################,,,,####,       
                ,###########''''           ''''###############################       
              ,#####''   ,,,,##########,,,,          '''####'''          '####       
            ,##' ,,,,###########################,,,                        '##       
           ' ,,###''''                  '''############,,,                           
         ,,##''                                '''############,,,,        ,,,,,,###''
      ,#''                                            '''#######################'''  
     '                                                          ''''####''''         
             ,#######,   #######,   ,#######,      ##                                
            ,#'     '#,  ##    ##  ,#'     '#,    #''#        ######   ,####,        
            ##       ##  ##   ,#'  ##            #'  '#       #        #'  '#        
            ##       ##  #######   ##           ,######,      #####,   #    #        
            '#,     ,#'  ##    ##  '#,     ,#' ,#      #,         ##   #,  ,#        
             '#######'   ##     ##  '#######'  #'      '#     #####' # '####'        



                  #######################################################
                  #                        -***-                        #
                  #          Department of theory and spectroscopy      #
                  #    Directorship and core code : Frank Neese         #
                  #        Max Planck Institute fuer Kohlenforschung    #
                  #                Kaiser Wilhelm Platz 1               #
                  #                 D-45470 Muelheim/Ruhr               #
                  #                      Germany                        #
                  #                                                     #
                  #                  All rights reserved                #
                  #                        -***-                        #
                  #######################################################


                         Program Version 5.0.3 -  RELEASE  -


 With contributions from (in alphabetic order):
   Daniel Aravena         : Magnetic Suceptibility
   Michael Atanasov       : Ab Initio Ligand Field Theory (pilot matlab implementation)
   Alexander A. Auer      : GIAO ZORA, VPT2 properties, NMR spectrum
   Ute Becker             : Parallelization
   Giovanni Bistoni       : ED, misc. LED, open-shell LED, HFLD
   Martin Brehm           : Molecular dynamics
   Dmytro Bykov           : SCF Hessian
   Vijay G. Chilkuri      : MRCI spin determinant printing, contributions to CSF-ICE
   Dipayan Datta          : RHF DLPNO-CCSD density
   Achintya Kumar Dutta   : EOM-CC, STEOM-CC
   Dmitry Ganyushin       : Spin-Orbit,Spin-Spin,Magnetic field MRCI
   Miquel Garcia          : C-PCM and meta-GGA Hessian, CC/C-PCM, Gaussian charge scheme
   Yang Guo               : DLPNO-NEVPT2, F12-NEVPT2, CIM, IAO-localization
   Andreas Hansen         : Spin unrestricted coupled pair/coupled cluster methods
   Benjamin Helmich-Paris : MC-RPA, TRAH-SCF, COSX integrals
   Lee Huntington         : MR-EOM, pCC
   Robert Izsak           : Overlap fitted RIJCOSX, COSX-SCS-MP3, EOM
   Marcus Kettner         : VPT2
   Christian Kollmar      : KDIIS, OOCD, Brueckner-CCSD(T), CCSD density, CASPT2, CASPT2-K
   Simone Kossmann        : Meta GGA functionals, TD-DFT gradient, OOMP2, MP2 Hessian
   Martin Krupicka        : Initial AUTO-CI
   Lucas Lang             : DCDCAS
   Marvin Lechner         : AUTO-CI (C++ implementation), FIC-MRCC
   Dagmar Lenk            : GEPOL surface, SMD
   Dimitrios Liakos       : Extrapolation schemes; Compound Job, initial MDCI parallelization
   Dimitrios Manganas     : Further ROCIS development; embedding schemes
   Dimitrios Pantazis     : SARC Basis sets
   Anastasios Papadopoulos: AUTO-CI, single reference methods and gradients
   Taras Petrenko         : DFT Hessian,TD-DFT gradient, ASA, ECA, R-Raman, ABS, FL, XAS/XES, NRVS
   Peter Pinski           : DLPNO-MP2, DLPNO-MP2 Gradient
   Christoph Reimann      : Effective Core Potentials
   Marius Retegan         : Local ZFS, SOC
   Christoph Riplinger    : Optimizer, TS searches, QM/MM, DLPNO-CCSD(T), (RO)-DLPNO pert. Triples
   Tobias Risthaus        : Range-separated hybrids, TD-DFT gradient, RPA, STAB
   Michael Roemelt        : Original ROCIS implementation
   Masaaki Saitow         : Open-shell DLPNO-CCSD energy and density
   Barbara Sandhoefer     : DKH picture change effects
   Avijit Sen             : IP-ROCIS
   Kantharuban Sivalingam : CASSCF convergence, NEVPT2, FIC-MRCI
   Bernardo de Souza      : ESD, SOC TD-DFT
   Georgi Stoychev        : AutoAux, RI-MP2 NMR, DLPNO-MP2 response
   Willem Van den Heuvel  : Paramagnetic NMR
   Boris Wezisla          : Elementary symmetry handling
   Frank Wennmohs         : Technical directorship


 We gratefully acknowledge several colleagues who have allowed us to
 interface, adapt or use parts of their codes:
   Stefan Grimme, W. Hujo, H. Kruse, P. Pracht,  : VdW corrections, initial TS optimization,
                  C. Bannwarth, S. Ehlert          DFT functionals, gCP, sTDA/sTD-DF
   Ed Valeev, F. Pavosevic, A. Kumar             : LibInt (2-el integral package), F12 methods
   Garnet Chan, S. Sharma, J. Yang, R. Olivares  : DMRG
   Ulf Ekstrom                                   : XCFun DFT Library
   Mihaly Kallay                                 : mrcc  (arbitrary order and MRCC methods)
   Jiri Pittner, Ondrej Demel                    : Mk-CCSD
   Frank Weinhold                                : gennbo (NPA and NBO analysis)
   Christopher J. Cramer and Donald G. Truhlar   : smd solvation model
   Lars Goerigk                                  : TD-DFT with DH, B97 family of functionals
   V. Asgeirsson, H. Jonsson                     : NEB implementation
   FAccTs GmbH                                   : IRC, NEB, NEB-TS, DLPNO-Multilevel, CI-OPT
                                                   MM, QMMM, 2- and 3-layer-ONIOM, Crystal-QMMM,
                                                   LR-CPCM, SF, NACMEs, symmetry and pop. for TD-DFT,
                                                   nearIR, NL-DFT gradient (VV10), updates on ESD,
                                                   ML-optimized integration grids
   S Lehtola, MJT Oliveira, MAL Marques          : LibXC Library
   Liviu Ungur et al                             : ANISO software


 Your calculation uses the libint2 library for the computation of 2-el integrals
 For citations please refer to: http://libint.valeyev.net

 Your ORCA version has been built with support for libXC version: 5.1.0
 For citations please refer to: https://tddft.org/programs/libxc/

 This ORCA versions uses:
   CBLAS   interface :  Fast vector & matrix operations
   LAPACKE interface :  Fast linear algebra routines
   SCALAPACK package :  Parallel linear algebra routines
   Shared memory     :  Shared parallel matrices
   BLAS/LAPACK       :  OpenBLAS 0.3.15  USE64BITINT DYNAMIC_ARCH NO_AFFINITY SkylakeX SINGLE_THREADED
        Core in use  :  SkylakeX
   Copyright (c) 2011-2014, The OpenBLAS Project


Your calculation utilizes the atom-pairwise dispersion correction
with the Becke-Johnson damping scheme (D3BJ)
Cite in your paper:
S.Grimme, S.Ehrlich, L.Goerigk, J Comput Chem, (2011), 32, 1456–1465 
S.Grimme, J.Antony, S.Ehrlich and H.Krieg, J.Chem.Phys., 132, (2010), 154104 
   

================================================================================

----- Orbital basis set information -----
Your calculation utilizes the basis: aug-cc-pVTZ 
    H, B-Ne : Obtained from the ccRepo (grant-hill.group.shef.ac.uk/ccrepo) Feb. 2017
              R. A. Kendall, T. H. Dunning, Jr., R. J. Harrison, J. Chem. Phys. 96, 6796 (1992)
         He : Obtained from the ccRepo (grant-hill.group.shef.ac.uk/ccrepo) Feb. 2017
              D. E. Woon, T. H. Dunning, Jr., J. Chem. Phys. 100, 2975 (1994)
  Li-Be, Na : Obtained from the ccRepo (grant-hill.group.shef.ac.uk/ccrepo) Feb. 2017
              B. P. Prascher, D. E. Woon, K. A. Peterson, T. H. Dunning, Jr., A. K. Wilson, Theor. Chem. Acc. 128, 69 (2011)
         Mg : Obtained from the Peterson Research Group Website (tyr0.chem.wsu.edu/~kipeters) Feb. 2017
              B. P. Prascher, D. E. Woon, K. A. Peterson, T. H. Dunning, Jr., A. K. Wilson, Theor. Chem. Acc. 128, 69 (2011)
      Al-Ar : Obtained from the ccRepo (grant-hill.group.shef.ac.uk/ccrepo) Feb. 2017
              D. E. Woon, T. H. Dunning, Jr., J. Chem. Phys. 98, 1358 (1993)
      Sc-Zn : Obtained from the ccRepo (grant-hill.group.shef.ac.uk/ccrepo) Feb. 2017
              N. B. Balabanov, K. A. Peterson, J. Chem. Phys. 123, 064107 (2005)
              N. B. Balabanov, K. A. Peterson, J. Chem. Phys. 125, 074110 (2006)
      Ga-Kr : Obtained from the ccRepo (grant-hill.group.shef.ac.uk/ccrepo) Feb. 2017
              A. K. Wilson, D. E. Woon, K. A. Peterson, T. H. Dunning, Jr., J. Chem. Phys. 110, 7667 (1999)
     Ag, Au : Obtained from the Peterson Research Group Website (tyr0.chem.wsu.edu/~kipeters) Feb. 2017
              K. A. Peterson, C. Puzzarini, Theor. Chem. Acc. 114, 283 (2005)

----- AuxJ basis set information -----
Your calculation utilizes the auxiliary basis: def2/J
   F. Weigend, Phys. Chem. Chem. Phys. 8, 1057 (2006).

----- AuxC basis set information -----
Your calculation utilizes the auxiliary basis: aug-cc-pVTZ/C 
  H-He, B-F, Al-Ar, Ga-Kr : Obtained from the EMSL Basis Set Exchange (bse.pnl.gov) Feb. 2017
                            F. Weigend, A. Kohn, C. Hattig, J. Chem. Phys. 116, 3175 (2002)
                   Be, Mg : Obtained from the TURBOMOLE 7.0 basis set library
                            C. Haettig, Phys. Chem. Chem. Phys. 7, 59 (2005)
                       Ne : Obtained from the EMSL Basis Set Exchange (bse.pnl.gov) Feb. 2017
                            C. Haettig, Phys. Chem. Chem. Phys. 7, 59 (2005)
                            F. Weigend, A. Kohn, C. Hattig, J. Chem. Phys. 116, 3175 (2002)
                    Sc-Zn : Obtained from the EMSL Basis Set Exchange (bse.pnl.gov) Feb. 2017
                            J. G. Hill, J. A. Platts, J. Chem. Phys. 128, 044104 (2008)

================================================================================
                                        WARNINGS
                       Please study these warnings very carefully!
================================================================================


WARNING: No MP2 level density has been requested!
         To caclulate MP2 level properties use
         %mp2 Density relaxed end
         or
         %mp2 Density unrelaxed end
         Otherwise for double-hybrid DFT only the energy is correct!

WARNING: There are different parametrizations of Gershom Martin's DSD-DFs
         for use with and without D3(BJ)!
         You are using the D3(BJ) parametrized version,
         consistent with the GMTKN55 benchmark (L. Goerigk et al., PCCP 2017, 19, 32184)

WARNING: The frozen-core approximation is turned on by default for 
         the MP2 part of double-hybrid DFT.

INFO   : the flag for use of the SHARK integral package has been found!

================================================================================
                                       INPUT FILE
================================================================================
NAME = A.35.avtz.com
|  1> !PAL8
|  2> !RI-DSD-PBEP86 D3BJ aug-cc-pVTZ aug-cc-pVTZ/C TightSCF
|  3> %maxcore 3000
|  4> 
|  5> 
|  6> * xyz -1 1
|  7> C -1.4278866799  0.9612545263 -0.6200683282
|  8> C -2.4962134479  0.7510288231 -1.4966653505
|  9> Cl -4.147812193  0.8975525432 -0.9554505527
| 10> C -2.3130924497  0.4243761565 -2.8342045805
| 11> H -3.17568134  0.3032210185 -3.4835420756
| 12> C -1.02426784  0.270682845 -3.3536347091
| 13> C  0.0468465852  0.4683371976 -2.4758414789
| 14> S  1.6836984727  0.1881862631 -3.0476482406
| 15> C -0.1476408024  0.8161708374 -1.1386762856
| 16> H  0.6953984004  0.9863377881 -0.4730739892
| 17> S -1.6180257208  1.3899633268  1.1686826778
| 18> O -0.2074020112  1.5130166449  1.5707453219
| 19> O -2.4027109515  2.6414984221  1.091944464
| 20> N -2.3104677885  0.1904618893  1.8800381267
| 21> H -3.3163907096  0.3325290261  1.7767719536
| 22> N -0.8590521603  0.0076242107 -4.7160237335
| 23> C  0.4240295631 -0.3954070032 -5.2549865267
| 24> N  1.4523702532  0.5079242866 -4.7168891009
| 25> O  2.6065388845  1.1941327413 -2.5471906649
| 26> O  2.0461452917 -1.2226013181 -2.9000849761
| 27> H -1.6301653605 -0.5094028203 -5.1244179929
| 28> C  2.749827027  0.4448652367 -5.4027986273
| 29> C  0.3649937683 -0.2807101694 -6.7794484327
| 30> S -0.9524259696 -1.3010413995 -7.5215880885
| 31> C -0.2039570506 -2.949375513 -7.4021479987
| 32> C  0.6831866177 -3.2932057019 -8.5772813477
| 33> H  0.6830873861 -1.4367371681 -4.9757206959
| 34> H  2.6753214757  0.9701128781 -6.3567600085
| 35> H  3.0899372118 -0.5880465186 -5.5681505947
| 36> H  3.4830239121  0.9660092402 -4.785154653
| 37> H  1.3111741176 -0.5607774609 -7.2425675329
| 38> H  0.1269437739  0.75324036 -7.0478444069
| 39> H -1.0132657226 -3.682983747 -7.3760250724
| 40> H  0.3813544817 -3.0557543245 -6.484926215
| 41> F  0.0140121701 -3.2917202547 -9.7394070819
| 42> F  1.2098622806 -4.5232561159 -8.4247889377
| 43> F  1.713123525 -2.4375317466 -8.7085732642
| 44> *
| 45> 
| 46>                          ****END OF INPUT****
================================================================================

                       ****************************
                       * Single Point Calculation *
                       ****************************

---------------------------------
CARTESIAN COORDINATES (ANGSTROEM)
---------------------------------
  C     -1.427887    0.961255   -0.620068
  C     -2.496213    0.751029   -1.496665
  Cl    -4.147812    0.897553   -0.955451
  C     -2.313092    0.424376   -2.834205
  H     -3.175681    0.303221   -3.483542
  C     -1.024268    0.270683   -3.353635
  C      0.046847    0.468337   -2.475841
  S      1.683698    0.188186   -3.047648
  C     -0.147641    0.816171   -1.138676
  H      0.695398    0.986338   -0.473074
  S     -1.618026    1.389963    1.168683
  O     -0.207402    1.513017    1.570745
  O     -2.402711    2.641498    1.091944
  N     -2.310468    0.190462    1.880038
  H     -3.316391    0.332529    1.776772
  N     -0.859052    0.007624   -4.716024
  C      0.424030   -0.395407   -5.254987
  N      1.452370    0.507924   -4.716889
  O      2.606539    1.194133   -2.547191
  O      2.046145   -1.222601   -2.900085
  H     -1.630165   -0.509403   -5.124418
  C      2.749827    0.444865   -5.402799
  C      0.364994   -0.280710   -6.779448
  S     -0.952426   -1.301041   -7.521588
  C     -0.203957   -2.949376   -7.402148
  C      0.683187   -3.293206   -8.577281
  H      0.683087   -1.436737   -4.975721
  H      2.675321    0.970113   -6.356760
  H      3.089937   -0.588047   -5.568151
  H      3.483024    0.966009   -4.785155
  H      1.311174   -0.560777   -7.242568
  H      0.126944    0.753240   -7.047844
  H     -1.013266   -3.682984   -7.376025
  H      0.381354   -3.055754   -6.484926
  F      0.014012   -3.291720   -9.739407
  F      1.209862   -4.523256   -8.424789
  F      1.713124   -2.437532   -8.708573

----------------------------
CARTESIAN COORDINATES (A.U.)
----------------------------
  NO LB      ZA    FRAG     MASS         X           Y           Z
   0 C     6.0000    0    12.011   -2.698315    1.816508   -1.171759
   1 C     6.0000    0    12.011   -4.717160    1.419239   -2.828288
   2 Cl   17.0000    0    35.453   -7.838229    1.696128   -1.805540
   3 C     6.0000    0    12.011   -4.371111    0.801955   -5.355870
   4 H     1.0000    0     1.008   -6.001168    0.573005   -6.582940
   5 C     6.0000    0    12.011   -1.935586    0.511516   -6.337451
   6 C     6.0000    0    12.011    0.088527    0.885029   -4.678662
   7 S    16.0000    0    32.060    3.181729    0.355620   -5.759221
   8 C     6.0000    0    12.011   -0.279001    1.542339   -2.151786
   9 H     1.0000    0     1.008    1.314113    1.863908   -0.893980
  10 S    16.0000    0    32.060   -3.057625    2.626650    2.208490
  11 O     8.0000    0    15.999   -0.391933    2.859187    2.968278
  12 O     8.0000    0    15.999   -4.540466    4.991709    2.063476
  13 N     7.0000    0    14.007   -4.366151    0.359921    3.552757
  14 H     1.0000    0     1.008   -6.267070    0.628389    3.357612
  15 N     7.0000    0    14.007   -1.623373    0.014408   -8.911993
  16 C     6.0000    0    12.011    0.801300   -0.747211   -9.930485
  17 N     7.0000    0    14.007    2.744582    0.959838   -8.913629
  18 O     8.0000    0    15.999    4.925645    2.256584   -4.813493
  19 O     8.0000    0    15.999    3.866654   -2.310382   -5.480366
  20 H     1.0000    0     1.008   -3.080566   -0.962632   -9.683747
  21 C     6.0000    0    12.011    5.196420    0.840673  -10.209810
  22 C     6.0000    0    12.011    0.689738   -0.530465  -12.811301
  23 S    16.0000    0    32.060   -1.799824   -2.458612  -14.213742
  24 C     6.0000    0    12.011   -0.385423   -5.573512  -13.988033
  25 C     6.0000    0    12.011    1.291036   -6.223257  -16.208713
  26 H     1.0000    0     1.008    1.290848   -2.715040   -9.402749
  27 H     1.0000    0     1.008    5.055625    1.833248  -12.012536
  28 H     1.0000    0     1.008    5.839135   -1.111247  -10.522280
  29 H     1.0000    0     1.008    6.581961    1.825493   -9.042632
  30 H     1.0000    0     1.008    2.477760   -1.059716  -13.686469
  31 H     1.0000    0     1.008    0.239889    1.423418  -13.318496
  32 H     1.0000    0     1.008   -1.914795   -6.959831  -13.938667
  33 H     1.0000    0     1.008    0.720656   -5.774539  -12.254735
  34 F     9.0000    0    18.998    0.026479   -6.220450  -18.404812
  35 F     9.0000    0    18.998    2.286308   -8.547715  -15.920544
  36 F     9.0000    0    18.998    3.237334   -4.606267  -16.456818

--------------------------------
INTERNAL COORDINATES (ANGSTROEM)
--------------------------------
 C      0   0   0     0.000000000000     0.00000000     0.00000000
 C      1   0   0     1.397833777320     0.00000000     0.00000000
 Cl     2   1   0     1.744179197424   121.09646137     0.00000000
 C      2   1   3     1.388973166180   122.58137587   179.65599368
 H      4   2   1     1.086451721742   119.80753428   182.02801320
 C      4   2   1     1.398033678802   120.34326889     1.05600588
 C      6   4   2     1.398883236714   117.20686047   359.57313799
 S      7   6   4     1.756340405627   119.12855459   176.12717101
 C      1   2   3     1.388896323387   117.04016099   179.69126478
 H      9   1   2     1.087519335709   118.01324551   179.37016726
 S      1   2   3     1.849209088223   124.25594497     0.63393731
 O     11   1   2     1.471956432427   100.66472327   181.02177633
 O     11   1   2     1.479175364689   101.56725309   301.54170762
 N     11   1   2     1.557018397568   108.00257880    64.11181873
 H     14  11   1     1.021140488405   106.54168003   273.28688120
 N      6   4   2     1.397354614872   119.46822228   183.16875628
 C     16   6   4     1.448866370910   121.31573331   191.24963922
 N     17  16   6     1.470727994464   108.19459719   312.85087158
 O      8   7   6     1.453967168725   111.66048037   139.79720650
 O      8   7   6     1.464057448634   110.58590442   273.82169283
 H     16   6   4     1.014257555761   113.49392621   329.98140669
 C     18  17  16     1.468959632550   114.85777529   193.95053878
 C     17  16   6     1.529910027288   108.39932799   193.33845344
 S     23  17  16     1.824127696637   113.03739514   301.49326723
 C     24  23  17     1.814242819329   100.57159548   284.16841311
 C     25  24  23     1.512012392454   113.42160409   273.38606623
 H     17  16   6     1.108814173900   111.99048803    72.68553285
 H     22  18  17     1.091548660753   109.09498133    75.86136572
 H     22  18  17     1.099964956335   112.55711231   313.50236903
 H     22  18  17     1.091170391687   107.97977102   193.12318728
 H     23  17  16     1.090034055495   111.75238521   179.30128560
 H     23  17  16     1.094421260780   108.88001502    58.70787385
 H     25  24  23     1.092631673916   107.81911576   154.49041626
 H     25  24  23     1.093252871880   111.37773104    36.01244103
 F     26  25  24     1.341019339892   112.36379815   299.29072893
 F     26  25  24     1.346723880378   110.43549131   179.75964648
 F     26  25  24     1.345431350213   112.35632640    60.36461332

---------------------------
INTERNAL COORDINATES (A.U.)
---------------------------
 C      0   0   0     0.000000000000     0.00000000     0.00000000
 C      1   0   0     2.641523019879     0.00000000     0.00000000
 Cl     2   1   0     3.296021011613   121.09646137     0.00000000
 C      2   1   3     2.624778891445   122.58137587   179.65599368
 H      4   2   1     2.053096211819   119.80753428   182.02801320
 C      4   2   1     2.641900778935   120.34326889     1.05600588
 C      6   4   2     2.643506210722   117.20686047   359.57313799
 S      7   6   4     3.319002364576   119.12855459   176.12717101
 C      1   2   3     2.624633679612   117.04016099   179.69126478
 H      9   1   2     2.055113709834   118.01324551   179.37016726
 S      1   2   3     3.494498741100   124.25594497     0.63393731
 O     11   1   2     2.781594538350   100.66472327   181.02177633
 O     11   1   2     2.795236343306   101.56725309   301.54170762
 N     11   1   2     2.942338356880   108.00257880    64.11181873
 H     14  11   1     1.929675867344   106.54168003   273.28688120
 N      6   4   2     2.640617534079   119.46822228   183.16875628
 C     16   6   4     2.737960645669   121.31573331   191.24963922
 N     17  16   6     2.779273127028   108.19459719   312.85087158
 O      8   7   6     2.747599756603   111.66048037   139.79720650
 O      8   7   6     2.766667622246   110.58590442   273.82169283
 H     16   6   4     1.916669009649   113.49392621   329.98140669
 C     18  17  16     2.775931407304   114.85777529   193.95053878
 C     17  16   6     2.891110961114   108.39932799   193.33845344
 S     23  17  16     3.447101779944   113.03739514   301.49326723
 C     24  23  17     3.428422068966   100.57159548   284.16841311
 C     25  24  23     2.857289332834   113.42160409   273.38606623
 H     17  16   6     2.095355122080   111.99048803    72.68553285
 H     22  18  17     2.062728030672   109.09498133    75.86136572
 H     22  18  17     2.078632524383   112.55711231   313.50236903
 H     22  18  17     2.062013205731   107.97977102   193.12318728
 H     23  17  16     2.059865841534   111.75238521   179.30128560
 H     23  17  16     2.068156458015   108.88001502    58.70787385
 H     25  24  23     2.064774628950   107.81911576   154.49041626
 H     25  24  23     2.065948522976   111.37773104    36.01244103
 F     26  25  24     2.534159292688   112.36379815   299.29072893
 F     26  25  24     2.544939311926   110.43549131   179.75964648
 F     26  25  24     2.542496783894   112.35632640    60.36461332

---------------------
BASIS SET INFORMATION
---------------------
There are 7 groups of distinct atoms

 Group   1 Type C   : 19s6p3d2f contracted to 5s4p3d2f pattern {88111/3111/111/11}
 Group   2 Type Cl  : 42s17p3d2f contracted to 6s5p3d2f pattern {131313111/77111/111/11}
 Group   3 Type H   : 6s3p2d contracted to 4s3p2d pattern {3111/111/11}
 Group   4 Type S   : 42s17p3d2f contracted to 6s5p3d2f pattern {131313111/77111/111/11}
 Group   5 Type O   : 19s6p3d2f contracted to 5s4p3d2f pattern {88111/3111/111/11}
 Group   6 Type N   : 19s6p3d2f contracted to 5s4p3d2f pattern {88111/3111/111/11}
 Group   7 Type F   : 19s6p3d2f contracted to 5s4p3d2f pattern {88111/3111/111/11}

Atom   0C    basis set group =>   1
Atom   1C    basis set group =>   1
Atom   2Cl   basis set group =>   2
Atom   3C    basis set group =>   1
Atom   4H    basis set group =>   3
Atom   5C    basis set group =>   1
Atom   6C    basis set group =>   1
Atom   7S    basis set group =>   4
Atom   8C    basis set group =>   1
Atom   9H    basis set group =>   3
Atom  10S    basis set group =>   4
Atom  11O    basis set group =>   5
Atom  12O    basis set group =>   5
Atom  13N    basis set group =>   6
Atom  14H    basis set group =>   3
Atom  15N    basis set group =>   6
Atom  16C    basis set group =>   1
Atom  17N    basis set group =>   6
Atom  18O    basis set group =>   5
Atom  19O    basis set group =>   5
Atom  20H    basis set group =>   3
Atom  21C    basis set group =>   1
Atom  22C    basis set group =>   1
Atom  23S    basis set group =>   4
Atom  24C    basis set group =>   1
Atom  25C    basis set group =>   1
Atom  26H    basis set group =>   3
Atom  27H    basis set group =>   3
Atom  28H    basis set group =>   3
Atom  29H    basis set group =>   3
Atom  30H    basis set group =>   3
Atom  31H    basis set group =>   3
Atom  32H    basis set group =>   3
Atom  33H    basis set group =>   3
Atom  34F    basis set group =>   7
Atom  35F    basis set group =>   7
Atom  36F    basis set group =>   7
---------------------------------
AUXILIARY/J BASIS SET INFORMATION
---------------------------------
There are 7 groups of distinct atoms

 Group   1 Type C   : 12s5p4d2f1g contracted to 6s4p3d1f1g pattern {711111/2111/211/2/1}
 Group   2 Type Cl  : 14s5p5d2f1g contracted to 8s4p3d1f1g pattern {71111111/2111/311/2/1}
 Group   3 Type H   : 5s2p1d contracted to 3s1p1d pattern {311/2/1}
 Group   4 Type S   : 14s5p5d2f1g contracted to 8s4p3d1f1g pattern {71111111/2111/311/2/1}
 Group   5 Type O   : 12s5p4d2f1g contracted to 6s4p3d1f1g pattern {711111/2111/211/2/1}
 Group   6 Type N   : 12s5p4d2f1g contracted to 6s4p3d1f1g pattern {711111/2111/211/2/1}
 Group   7 Type F   : 12s5p4d2f1g contracted to 6s4p3d1f1g pattern {711111/2111/211/2/1}

Atom   0C    basis set group =>   1
Atom   1C    basis set group =>   1
Atom   2Cl   basis set group =>   2
Atom   3C    basis set group =>   1
Atom   4H    basis set group =>   3
Atom   5C    basis set group =>   1
Atom   6C    basis set group =>   1
Atom   7S    basis set group =>   4
Atom   8C    basis set group =>   1
Atom   9H    basis set group =>   3
Atom  10S    basis set group =>   4
Atom  11O    basis set group =>   5
Atom  12O    basis set group =>   5
Atom  13N    basis set group =>   6
Atom  14H    basis set group =>   3
Atom  15N    basis set group =>   6
Atom  16C    basis set group =>   1
Atom  17N    basis set group =>   6
Atom  18O    basis set group =>   5
Atom  19O    basis set group =>   5
Atom  20H    basis set group =>   3
Atom  21C    basis set group =>   1
Atom  22C    basis set group =>   1
Atom  23S    basis set group =>   4
Atom  24C    basis set group =>   1
Atom  25C    basis set group =>   1
Atom  26H    basis set group =>   3
Atom  27H    basis set group =>   3
Atom  28H    basis set group =>   3
Atom  29H    basis set group =>   3
Atom  30H    basis set group =>   3
Atom  31H    basis set group =>   3
Atom  32H    basis set group =>   3
Atom  33H    basis set group =>   3
Atom  34F    basis set group =>   7
Atom  35F    basis set group =>   7
Atom  36F    basis set group =>   7
---------------------------------
AUXILIARY/C BASIS SET INFORMATION
---------------------------------
There are 7 groups of distinct atoms

 Group   1 Type C   : 9s7p6d4f2g contracted to 9s7p6d4f2g pattern {111111111/1111111/111111/1111/11}
 Group   2 Type Cl  : 11s9p8d6f3g contracted to 11s9p8d6f3g pattern {11111111111/111111111/11111111/111111/111}
 Group   3 Type H   : 5s4p3d2f contracted to 5s4p3d2f pattern {11111/1111/111/11}
 Group   4 Type S   : 11s9p8d6f3g contracted to 11s9p8d6f3g pattern {11111111111/111111111/11111111/111111/111}
 Group   5 Type O   : 9s7p6d4f2g contracted to 9s7p6d4f2g pattern {111111111/1111111/111111/1111/11}
 Group   6 Type N   : 9s7p6d4f2g contracted to 9s7p6d4f2g pattern {111111111/1111111/111111/1111/11}
 Group   7 Type F   : 9s7p6d4f2g contracted to 9s7p6d4f2g pattern {111111111/1111111/111111/1111/11}

Atom   0C    basis set group =>   1
Atom   1C    basis set group =>   1
Atom   2Cl   basis set group =>   2
Atom   3C    basis set group =>   1
Atom   4H    basis set group =>   3
Atom   5C    basis set group =>   1
Atom   6C    basis set group =>   1
Atom   7S    basis set group =>   4
Atom   8C    basis set group =>   1
Atom   9H    basis set group =>   3
Atom  10S    basis set group =>   4
Atom  11O    basis set group =>   5
Atom  12O    basis set group =>   5
Atom  13N    basis set group =>   6
Atom  14H    basis set group =>   3
Atom  15N    basis set group =>   6
Atom  16C    basis set group =>   1
Atom  17N    basis set group =>   6
Atom  18O    basis set group =>   5
Atom  19O    basis set group =>   5
Atom  20H    basis set group =>   3
Atom  21C    basis set group =>   1
Atom  22C    basis set group =>   1
Atom  23S    basis set group =>   4
Atom  24C    basis set group =>   1
Atom  25C    basis set group =>   1
Atom  26H    basis set group =>   3
Atom  27H    basis set group =>   3
Atom  28H    basis set group =>   3
Atom  29H    basis set group =>   3
Atom  30H    basis set group =>   3
Atom  31H    basis set group =>   3
Atom  32H    basis set group =>   3
Atom  33H    basis set group =>   3
Atom  34F    basis set group =>   7
Atom  35F    basis set group =>   7
Atom  36F    basis set group =>   7


           ************************************************************
           *        Program running with 8 parallel MPI-processes     *
           *              working on a common directory               *
           ************************************************************
------------------------------------------------------------------------------
                           ORCA GTO INTEGRAL CALCULATION
                           -- RI-GTO INTEGRALS CHOSEN --
------------------------------------------------------------------------------
------------------------------------------------------------------------------
                   ___                                                        
                  /   \      - P O W E R E D   B Y -                         
                 /     \                                                     
                 |  |  |   _    _      __       _____    __    __             
                 |  |  |  | |  | |    /  \     |  _  \  |  |  /  |          
                  \  \/   | |  | |   /    \    | | | |  |  | /  /          
                 / \  \   | |__| |  /  /\  \   | |_| |  |  |/  /          
                |  |  |   |  __  | /  /__\  \  |    /   |      \           
                |  |  |   | |  | | |   __   |  |    \   |  |\   \          
                \     /   | |  | | |  |  |  |  | |\  \  |  | \   \       
                 \___/    |_|  |_| |__|  |__|  |_| \__\ |__|  \__/        
                                                                              
                      - O R C A' S   B I G   F R I E N D -                    
                                      &                                       
                       - I N T E G R A L  F E E D E R -                       
                                                                              
 v1 FN, 2020, v2 2021                                                         
------------------------------------------------------------------------------


Reading SHARK input file A.35.avtz.SHARKINP.tmp ... ok
----------------------
SHARK INTEGRAL PACKAGE
----------------------

Number of atoms                             ...     37
Number of basis functions                   ...   1668
Number of shells                            ...    652
Maximum angular momentum                    ...      3
Integral batch strategy                     ... SHARK/LIBINT Hybrid
RI-J (if used) integral strategy            ... SPLIT-RIJ (Revised 2003 algorithm where possible)
Printlevel                                  ...      1
Contraction scheme used                     ... PARTIAL GENERAL contraction
Coulomb Range Separation                    ... NOT USED
Exchange Range Separation                   ... NOT USED
Finite Nucleus Model                        ... NOT USED
Auxiliary Coulomb fitting basis             ... AVAILABLE
   # of basis functions in Aux-J            ...   1365
   # of shells in Aux-J                     ...    443
   Maximum angular momentum in Aux-J        ...      4
Auxiliary J/K fitting basis                 ... NOT available
Auxiliary Correlation fitting basis         ... AVAILABLE
   # of basis functions in Aux-C            ...   3366
   # of shells in Aux-C                     ...    904
   Maximum angular momentum in Aux-C        ...      4
Auxiliary 'external' fitting basis          ... NOT available
Integral threshold                          ...     2.500000e-11
Primitive cut-off                           ...     2.500000e-12
Primitive pair pre-selection threshold      ...     2.500000e-12

Calculating pre-screening integrals         ... done (  0.1 sec) Dimension = 652
Calculating pre-screening integrals (ORCA)  ... done (  0.5 sec) Dimension = 466
Organizing shell pair data                  ... done (  1.3 sec)
Shell pair information
Total number of shell pairs                 ...    212878
Shell pairs after pre-screening             ...    124361
Total number of primitive shell pairs       ...    258220
Primitive shell pairs kept                  ...    139560
          la=0 lb=0:  26600 shell pairs
          la=1 lb=0:  33187 shell pairs
          la=1 lb=1:   9402 shell pairs
          la=2 lb=0:  20475 shell pairs
          la=2 lb=1:  11554 shell pairs
          la=2 lb=2:   3641 shell pairs
          la=3 lb=0:   9626 shell pairs
          la=3 lb=1:   5563 shell pairs
          la=3 lb=2:   3464 shell pairs
          la=3 lb=3:    849 shell pairs

Calculating one electron integrals          ... done (  0.3 sec)
Calculating RI/J V-Matrix + Cholesky decomp.... done (  0.1 sec)
Calculating RI/C V-Matrix + Cholesky decomp.... done (  0.7 sec)
Calculating Nuclear repulsion               ... done (  0.0 sec) ENN=   3079.880079683835 Eh

SHARK setup successfully completed in   4.4 seconds

Maximum memory used throughout the entire GTOINT-calculation: 167.0 MB


           ************************************************************
           *        Program running with 8 parallel MPI-processes     *
           *              working on a common directory               *
           ************************************************************
-------------------------------------------------------------------------------
                                 ORCA SCF
-------------------------------------------------------------------------------

------------
SCF SETTINGS
------------
Hamiltonian:
 Density Functional     Method          .... DFT(GTOs)
 Exchange Functional    Exchange        .... PBE
   PBE kappa parameter   XKappa         ....  0.804000
   PBE mue parameter    XMuePBE         ....  0.219520
 Correlation Functional Correlation     .... P86
 LDA part of GGA corr.  LDAOpt          .... VWN-5
 Gradients option       PostSCFGGA      .... off
 Hybrid DFT is turned on
   Fraction HF Exchange ScalHFX         ....  0.700000
   Scaling of DF-GGA-X  ScalDFX         ....  0.300000
   Scaling of DF-GGA-C  ScalDFC         ....  0.430000
   Scaling of DF-LDA-C  ScalLDAC        ....  0.430000
   Perturbative correction              ....  1.000000
   Density functional embedding theory  .... OFF
   NL short-range parameter             .... 14.200000
 RI-approximation to the Coulomb term is turned on
   Number of AuxJ basis functions       .... 1365
   RIJ-COSX (HFX calculated with COS-X)).... on


General Settings:
 Integral files         IntName         .... A.35.avtz
 Hartree-Fock type      HFTyp           .... RHF
 Total Charge           Charge          ....   -1
 Multiplicity           Mult            ....    1
 Number of Electrons    NEL             ....  224
 Basis Dimension        Dim             .... 1442
 Nuclear Repulsion      ENuc            ....   3079.8800796838 Eh

Convergence Acceleration:
 DIIS                   CNVDIIS         .... on
   Start iteration      DIISMaxIt       ....    12
   Startup error        DIISStart       ....  0.200000
   # of expansion vecs  DIISMaxEq       ....     5
   Bias factor          DIISBfac        ....   1.050
   Max. coefficient     DIISMaxC        ....  10.000
 Trust-Rad. Augm. Hess. CNVTRAH         .... auto
   Auto Start mean grad. ratio tolernc. ....  1.125000
   Auto Start start iteration           ....    20
   Auto Start num. interpolation iter.  ....    10
   Max. Number of Micro iterations      ....    16
   Max. Number of Macro iterations      .... Maxiter - #DIIS iter
   Number of Davidson start vectors     ....     2
   Converg. threshold I  (grad. norm)   ....   1.000e-05
   Converg. threshold II (energy diff.) ....   1.000e-08
   Grad. Scal. Fac. for Micro threshold ....   0.100
   Minimum threshold for Micro iter.    ....   0.010
   NR start threshold (gradient norm)   ....   0.001
   Initial trust radius                 ....   0.400
   Minimum AH scaling param. (alpha)    ....   1.000
   Maximum AH scaling param. (alpha)    .... 1000.000
   Orbital update algorithm             .... Taylor
   White noise on init. David. guess    .... on
   Maximum white noise                  ....   0.010
   Quad. conv. algorithm                .... NR
 SOSCF                  CNVSOSCF        .... on
   Start iteration      SOSCFMaxIt      ....   150
   Startup grad/error   SOSCFStart      ....  0.003300
 Level Shifting         CNVShift        .... on
   Level shift para.    LevelShift      ....    0.2500
   Turn off err/grad.   ShiftErr        ....    0.0010
 Zerner damping         CNVZerner       .... off
 Static damping         CNVDamp         .... on
   Fraction old density DampFac         ....    0.7000
   Max. Damping (<1)    DampMax         ....    0.9800
   Min. Damping (>=0)   DampMin         ....    0.0000
   Turn off err/grad.   DampErr         ....    0.1000
 Fernandez-Rico         CNVRico         .... off

SCF Procedure:
 Maximum # iterations   MaxIter         ....   125
 SCF integral mode      SCFMode         .... Direct
   Integral package                     .... SHARK and LIBINT hybrid scheme
 Reset frequency        DirectResetFreq ....    20
 Integral Threshold     Thresh          ....  2.500e-11 Eh
 Primitive CutOff       TCut            ....  2.500e-12 Eh

Convergence Tolerance:
 Convergence Check Mode ConvCheckMode   .... Total+1el-Energy
 Convergence forced     ConvForced      .... 0
 Energy Change          TolE            ....  1.000e-08 Eh
 1-El. energy change                    ....  1.000e-05 Eh
 Orbital Gradient       TolG            ....  1.000e-05
 Orbital Rotation angle TolX            ....  1.000e-05
 DIIS Error             TolErr          ....  5.000e-07


Diagonalization of the overlap matrix:
Smallest eigenvalue                        ... 1.008e-07
Time for diagonalization                   ...    0.294 sec
Threshold for overlap eigenvalues          ... 1.000e-08
Number of eigenvalues below threshold      ... 0
Time for construction of square roots      ...    0.211 sec
Total time needed                          ...    0.513 sec

Time for model grid setup =    0.445 sec

------------------------------
INITIAL GUESS: MODEL POTENTIAL
------------------------------
Loading Hartree-Fock densities                     ... done
Calculating cut-offs                               ... done
Initializing the effective Hamiltonian             ... done
Setting up the integral package (SHARK)            ... done
Starting the Coulomb interaction                   ... done (   1.9 sec)
Reading the grid                                   ... done
Mapping shells                                     ... done
Starting the XC term evaluation                    ... done (   1.4 sec)
  promolecular density results
     # of electrons  =    222.994381893
     EX              =   -244.393594993
     EC              =     -0.055673026
     EX+EC           =   -244.449268019
Transforming the Hamiltonian                       ... done (   0.1 sec)
Diagonalizing the Hamiltonian                      ... done (   0.3 sec)
Back transforming the eigenvectors                 ... done (   0.1 sec)
Now organizing SCF variables                       ... done
                      ------------------
                      INITIAL GUESS DONE (   4.3 sec)
                      ------------------
-------------------
DFT GRID GENERATION
-------------------

General Integration Accuracy     IntAcc      ... 4.388
Radial Grid Type                 RadialGrid  ... OptM3 with GC (2021)
Angular Grid (max. ang.)         AngularGrid ... 4 (Lebedev-302)
Angular grid pruning method      GridPruning ... 4 (adaptive)
Weight generation scheme         WeightScheme... Becke
Basis function cutoff            BFCut       ... 1.0000e-11
Integration weight cutoff        WCut        ... 1.0000e-14
Angular grids for H and He will be reduced by one unit
Partially contracted basis set               ... off
Rotationally invariant grid construction     ... off

Total number of grid points                  ...   201396
Total number of batches                      ...     3165
Average number of points per batch           ...       63
Average number of grid points per atom       ...     5443
Time for grid setup =    1.519 sec

--------------------
COSX GRID GENERATION
--------------------

GRIDX 1
-------
General Integration Accuracy     IntAcc      ... 3.816
Radial Grid Type                 RadialGrid  ... OptM3 with GC (2021)
Angular Grid (max. ang.)         AngularGrid ... 1 (Lebedev-50)
Angular grid pruning method      GridPruning ... 4 (adaptive)
Weight generation scheme         WeightScheme... Becke
Basis function cutoff            BFCut       ... 1.0000e-11
Integration weight cutoff        WCut        ... 1.0000e-14
Angular grids for H and He will be reduced by one unit
Partially contracted basis set               ... on
Rotationally invariant grid construction     ... off

Total number of grid points                  ...    24932
Total number of batches                      ...      409
Average number of points per batch           ...       60
Average number of grid points per atom       ...      674
UseSFitting                                  ... on

GRIDX 2
-------
General Integration Accuracy     IntAcc      ... 4.020
Radial Grid Type                 RadialGrid  ... OptM3 with GC (2021)
Angular Grid (max. ang.)         AngularGrid ... 2 (Lebedev-110)
Angular grid pruning method      GridPruning ... 4 (adaptive)
Weight generation scheme         WeightScheme... Becke
Basis function cutoff            BFCut       ... 1.0000e-11
Integration weight cutoff        WCut        ... 1.0000e-14
Angular grids for H and He will be reduced by one unit
Partially contracted basis set               ... on
Rotationally invariant grid construction     ... off

Total number of grid points                  ...    60884
Total number of batches                      ...      969
Average number of points per batch           ...       62
Average number of grid points per atom       ...     1646
UseSFitting                                  ... on

GRIDX 3
-------
General Integration Accuracy     IntAcc      ... 4.338
Radial Grid Type                 RadialGrid  ... OptM3 with GC (2021)
Angular Grid (max. ang.)         AngularGrid ... 3 (Lebedev-194)
Angular grid pruning method      GridPruning ... 4 (adaptive)
Weight generation scheme         WeightScheme... Becke
Basis function cutoff            BFCut       ... 1.0000e-11
Integration weight cutoff        WCut        ... 1.0000e-14
Angular grids for H and He will be reduced by one unit
Partially contracted basis set               ... on
Rotationally invariant grid construction     ... off

Total number of grid points                  ...   135715
Total number of batches                      ...     2136
Average number of points per batch           ...       63
Average number of grid points per atom       ...     3668
UseSFitting                                  ... on

Time for X-Grid setup             =    4.561 sec

 re-compute Schwartz prescreening matrix in partically contracted basis (1) ...done (   0.158 sec)
--------------
SCF ITERATIONS
--------------
ITER       Energy         Delta-E        Max-DP      RMS-DP      [F,P]     Damp
               ***  Starting incremental Fock matrix formation  ***
  0  -2839.9012689980   0.000000000000 0.88091363  0.00286032  0.3231299 0.7000
  1  -2840.2374914753  -0.336222477335 0.53586234  0.00239765  0.1763187 0.7000
                               ***Turning on DIIS***
  2  -2840.4020866272  -0.164595151859 0.92831231  0.00560844  0.0800817 0.0000
  3  -2840.6865823943  -0.284495767087 0.37611203  0.00116166  0.0766858 0.0000
  4  -2840.7257066537  -0.039124259382 0.07486873  0.00042727  0.0072691 0.0000
  5  -2840.7269985201  -0.001291866453 0.11100586  0.00031018  0.0057550 0.0000
                      *** Initiating the SOSCF procedure ***
                           *** Shutting down DIIS ***
                      *** Re-Reading the Fockian *** 
                      *** Removing any level shift *** 
ITER      Energy       Delta-E        Grad      Rot      Max-DP    RMS-DP
  6  -2840.72735244  -0.0003539158  0.000727  0.000727  0.211570  0.000682
               *** Restarting incremental Fock matrix formation ***
  7  -2840.72735387  -0.0000014303  0.000328  0.000901  0.668751  0.002589
  8  -2840.72738115  -0.0000272843  0.000159  0.000643  0.347935  0.001143
  9  -2840.72738347  -0.0000023212  0.000081  0.000082  0.189690  0.000605
 10  -2840.72738550  -0.0000020268  0.000024  0.000075  0.443044  0.001328
 11  -2840.72738561  -0.0000001122  0.000025  0.000053  0.156132  0.000456
 12  -2840.72738563  -0.0000000238  0.000005  0.000015  0.175494  0.000540
                  ***Gradient check signals convergence***
              ***Rediagonalizing the Fockian in SOSCF/NRSCF***

               *****************************************************
               *                     SUCCESS                       *
               *           SCF CONVERGED AFTER  13 CYCLES          *
               *****************************************************

Old exchange energy                            =   -173.293867682 Eh
New exchange energy                            =   -173.293677923 Eh
Exchange energy change after final integration =      0.000189759 Eh
Total energy after final integration           =  -2840.727195852 Eh
Final COS-X integration done in                =   110.181 sec

----------------
TOTAL SCF ENERGY
----------------

Total Energy       :        -2840.72719585 Eh          -77300.11686 eV

Components:
Nuclear Repulsion  :         3079.88007968 Eh           83807.79767 eV
Electronic Energy  :        -5920.60727554 Eh         -161107.91454 eV
One Electron Energy:       -10072.44641931 Eh         -274085.20129 eV
Two Electron Energy:         4151.83914378 Eh          112977.28676 eV
Max COSX asymmetry :            0.00004314 Eh               0.00117 eV

Virial components:
Potential Energy   :        -5675.04041421 Eh         -154425.70052 eV
Kinetic Energy     :         2834.31321836 Eh           77125.58366 eV
Virial Ratio       :            2.00226297


DFT components:
N(Alpha)           :      112.000089436987 electrons
N(Beta)            :      112.000089436987 electrons
N(Total)           :      224.000178873974 electrons
E(X)               :      -73.984032001971 Eh       
E(C)               :       -3.869526467179 Eh       
E(XC)              :      -77.853558469151 Eh       
DFET-embed. en.    :        0.000000000000 Eh       

---------------
SCF CONVERGENCE
---------------

  Last Energy change         ...    2.3224e-08  Tolerance :   1.0000e-08
  Last MAX-Density change    ...    5.5511e-15  Tolerance :   1.0000e-07
  Last RMS-Density change    ...    2.8415e-17  Tolerance :   5.0000e-09
  Last Orbital Gradient      ...    2.4958e-06  Tolerance :   1.0000e-05
  Last Orbital Rotation      ...    8.2778e-06  Tolerance :   1.0000e-05

             **** THE GBW FILE WAS UPDATED (A.35.avtz.gbw) ****
             **** DENSITY A.35.avtz.scfp WAS UPDATED ****
             **** ENERGY FILE WAS UPDATED (A.35.avtz.en.tmp) ****
             **** THE GBW FILE WAS UPDATED (A.35.avtz.gbw) ****
             **** DENSITY A.35.avtz.scfp WAS UPDATED ****
----------------
ORBITAL ENERGIES
----------------

  NO   OCC          E(Eh)            E(eV) 
   0   2.0000    -103.514110     -2816.7621 
   1   2.0000     -90.954422     -2474.9956 
   2   2.0000     -90.857562     -2472.3599 
   3   2.0000     -90.778144     -2470.1989 
   4   2.0000     -25.693580      -699.1579 
   5   2.0000     -25.692257      -699.1218 
   6   2.0000     -25.691693      -699.1065 
   7   2.0000     -19.935727      -542.4787 
   8   2.0000     -19.933233      -542.4109 
   9   2.0000     -19.835853      -539.7610 
  10   2.0000     -19.835155      -539.7420 
  11   2.0000     -15.068721      -410.0407 
  12   2.0000     -15.051002      -409.5586 
  13   2.0000     -14.894615      -405.3031 
  14   2.0000     -11.060749      -300.9783 
  15   2.0000     -10.864723      -295.6441 
  16   2.0000     -10.852570      -295.3134 
  17   2.0000     -10.828245      -294.6515 
  18   2.0000     -10.825941      -294.5888 
  19   2.0000     -10.822794      -294.5032 
  20   2.0000     -10.806277      -294.0538 
  21   2.0000     -10.784002      -293.4476 
  22   2.0000     -10.763894      -292.9005 
  23   2.0000     -10.762748      -292.8693 
  24   2.0000     -10.751042      -292.5507 
  25   2.0000     -10.062045      -273.8022 
  26   2.0000      -8.699173      -236.7165 
  27   2.0000      -8.598757      -233.9841 
  28   2.0000      -8.554121      -232.7695 
  29   2.0000      -7.635203      -207.7644 
  30   2.0000      -7.630748      -207.6432 
  31   2.0000      -7.630426      -207.6345 
  32   2.0000      -6.485723      -176.4855 
  33   2.0000      -6.482883      -176.4082 
  34   2.0000      -6.482322      -176.3930 
  35   2.0000      -6.385522      -173.7589 
  36   2.0000      -6.383100      -173.6930 
  37   2.0000      -6.382119      -173.6663 
  38   2.0000      -6.337173      -172.4432 
  39   2.0000      -6.334863      -172.3804 
  40   2.0000      -6.332147      -172.3065 
  41   2.0000      -1.541342       -41.9420 
  42   2.0000      -1.448755       -39.4226 
  43   2.0000      -1.447279       -39.3825 
  44   2.0000      -1.254836       -34.1458 
  45   2.0000      -1.148320       -31.2474 
  46   2.0000      -1.135765       -30.9057 
  47   2.0000      -1.117163       -30.3995 
  48   2.0000      -1.045747       -28.4562 
  49   2.0000      -1.031935       -28.0804 
  50   2.0000      -0.992265       -27.0009 
  51   2.0000      -0.974674       -26.5222 
  52   2.0000      -0.938291       -25.5322 
  53   2.0000      -0.902326       -24.5536 
  54   2.0000      -0.890528       -24.2325 
  55   2.0000      -0.855629       -23.2829 
  56   2.0000      -0.844103       -22.9692 
  57   2.0000      -0.814668       -22.1683 
  58   2.0000      -0.800297       -21.7772 
  59   2.0000      -0.764660       -20.8075 
  60   2.0000      -0.714676       -19.4473 
  61   2.0000      -0.705331       -19.1930 
  62   2.0000      -0.703062       -19.1313 
  63   2.0000      -0.698547       -19.0084 
  64   2.0000      -0.686436       -18.6789 
  65   2.0000      -0.647512       -17.6197 
  66   2.0000      -0.628490       -17.1021 
  67   2.0000      -0.610423       -16.6104 
  68   2.0000      -0.591563       -16.0972 
  69   2.0000      -0.586420       -15.9573 
  70   2.0000      -0.582864       -15.8605 
  71   2.0000      -0.580840       -15.8055 
  72   2.0000      -0.561662       -15.2836 
  73   2.0000      -0.547563       -14.8999 
  74   2.0000      -0.544547       -14.8179 
  75   2.0000      -0.528722       -14.3872 
  76   2.0000      -0.524435       -14.2706 
  77   2.0000      -0.520575       -14.1656 
  78   2.0000      -0.506999       -13.7961 
  79   2.0000      -0.503051       -13.6887 
  80   2.0000      -0.499972       -13.6049 
  81   2.0000      -0.483886       -13.1672 
  82   2.0000      -0.481416       -13.1000 
  83   2.0000      -0.476031       -12.9535 
  84   2.0000      -0.468813       -12.7571 
  85   2.0000      -0.467175       -12.7125 
  86   2.0000      -0.456139       -12.4122 
  87   2.0000      -0.440381       -11.9834 
  88   2.0000      -0.435089       -11.8394 
  89   2.0000      -0.429076       -11.6757 
  90   2.0000      -0.419831       -11.4242 
  91   2.0000      -0.408428       -11.1139 
  92   2.0000      -0.401812       -10.9339 
  93   2.0000      -0.387130       -10.5343 
  94   2.0000      -0.377808       -10.2807 
  95   2.0000      -0.366780        -9.9806 
  96   2.0000      -0.362512        -9.8645 
  97   2.0000      -0.351662        -9.5692 
  98   2.0000      -0.343901        -9.3580 
  99   2.0000      -0.329809        -8.9746 
 100   2.0000      -0.320370        -8.7177 
 101   2.0000      -0.307540        -8.3686 
 102   2.0000      -0.294620        -8.0170 
 103   2.0000      -0.291952        -7.9444 
 104   2.0000      -0.283148        -7.7049 
 105   2.0000      -0.268858        -7.3160 
 106   2.0000      -0.254893        -6.9360 
 107   2.0000      -0.238763        -6.4971 
 108   2.0000      -0.229775        -6.2525 
 109   2.0000      -0.205054        -5.5798 
 110   2.0000      -0.203686        -5.5426 
 111   2.0000      -0.167260        -4.5514 
 112   0.0000       0.066548         1.8109 
 113   0.0000       0.073211         1.9922 
 114   0.0000       0.080955         2.2029 
 115   0.0000       0.091628         2.4933 
 116   0.0000       0.095189         2.5902 
 117   0.0000       0.098723         2.6864 
 118   0.0000       0.104368         2.8400 
 119   0.0000       0.108702         2.9579 
 120   0.0000       0.116889         3.1807 
 121   0.0000       0.122003         3.3199 
 122   0.0000       0.123772         3.3680 
 123   0.0000       0.126816         3.4508 
 124   0.0000       0.132521         3.6061 
 125   0.0000       0.133749         3.6395 
 126   0.0000       0.136446         3.7129 
 127   0.0000       0.138079         3.7573 
 128   0.0000       0.141774         3.8579 
 129   0.0000       0.147893         4.0244 
 130   0.0000       0.148150         4.0314 
 131   0.0000       0.155476         4.2307 
 132   0.0000       0.156926         4.2702 
 133   0.0000       0.158411         4.3106 
 134   0.0000       0.158950         4.3252 
 135   0.0000       0.160757         4.3744 
 136   0.0000       0.163290         4.4433 
 137   0.0000       0.170063         4.6276 
 138   0.0000       0.171262         4.6603 
 139   0.0000       0.176176         4.7940 
 140   0.0000       0.179681         4.8894 
 141   0.0000       0.181208         4.9309 
 142   0.0000       0.184359         5.0166 
 143   0.0000       0.185915         5.0590 
 144   0.0000       0.187763         5.1093 
 145   0.0000       0.189586         5.1589 
 146   0.0000       0.194421         5.2905 
 147   0.0000       0.195478         5.3192 
 148   0.0000       0.197179         5.3655 
 149   0.0000       0.200287         5.4501 
 150   0.0000       0.202872         5.5204 
 151   0.0000       0.204752         5.5716 
 152   0.0000       0.208464         5.6726 
 153   0.0000       0.215342         5.8598 
 154   0.0000       0.217848         5.9279 
 155   0.0000       0.219875         5.9831 
 156   0.0000       0.223255         6.0751 
 157   0.0000       0.226843         6.1727 
 158   0.0000       0.227736         6.1970 
 159   0.0000       0.230898         6.2831 
 160   0.0000       0.233494         6.3537 
 161   0.0000       0.234803         6.3893 
 162   0.0000       0.240091         6.5332 
 163   0.0000       0.241352         6.5675 
 164   0.0000       0.242876         6.6090 
 165   0.0000       0.244295         6.6476 
 166   0.0000       0.247129         6.7247 
 167   0.0000       0.247772         6.7422 
 168   0.0000       0.252942         6.8829 
 169   0.0000       0.255402         6.9498 
 170   0.0000       0.257603         7.0097 
 171   0.0000       0.260560         7.0902 
 172   0.0000       0.263309         7.1650 
 173   0.0000       0.265507         7.2248 
 174   0.0000       0.268984         7.3194 
 175   0.0000       0.272683         7.4201 
 176   0.0000       0.274088         7.4583 
 177   0.0000       0.276901         7.5348 
 178   0.0000       0.277611         7.5542 
 179   0.0000       0.281470         7.6592 
 180   0.0000       0.283038         7.7019 
 181   0.0000       0.284036         7.7290 
 182   0.0000       0.286447         7.7946 
 183   0.0000       0.290587         7.9073 
 184   0.0000       0.292773         7.9668 
 185   0.0000       0.295979         8.0540 
 186   0.0000       0.297529         8.0962 
 187   0.0000       0.297971         8.1082 
 188   0.0000       0.300742         8.1836 
 189   0.0000       0.305294         8.3075 
 190   0.0000       0.306349         8.3362 
 191   0.0000       0.309300         8.4165 
 192   0.0000       0.313070         8.5191 
 193   0.0000       0.314630         8.5615 
 194   0.0000       0.317748         8.6464 
 195   0.0000       0.319544         8.6952 
 196   0.0000       0.320412         8.7189 
 197   0.0000       0.322695         8.7810 
 198   0.0000       0.328110         8.9283 
 199   0.0000       0.329240         8.9591 
 200   0.0000       0.332014         9.0346 
 201   0.0000       0.334426         9.1002 
 202   0.0000       0.337748         9.1906 
 203   0.0000       0.339375         9.2349 
 204   0.0000       0.340603         9.2683 
 205   0.0000       0.343497         9.3470 
 206   0.0000       0.346980         9.4418 
 207   0.0000       0.348359         9.4793 
 208   0.0000       0.349734         9.5167 
 209   0.0000       0.350560         9.5392 
 210   0.0000       0.352705         9.5976 
 211   0.0000       0.357083         9.7167 
 212   0.0000       0.357507         9.7283 
 213   0.0000       0.359890         9.7931 
 214   0.0000       0.363433         9.8895 
 215   0.0000       0.364503         9.9186 
 216   0.0000       0.366839         9.9822 
 217   0.0000       0.367164         9.9910 
 218   0.0000       0.372339        10.1319 
 219   0.0000       0.374072        10.1790 
 220   0.0000       0.376836        10.2542 
 221   0.0000       0.378530        10.3003 
 222   0.0000       0.381467        10.3802 
 223   0.0000       0.383219        10.4279 
 224   0.0000       0.383584        10.4379 
 225   0.0000       0.385750        10.4968 
 226   0.0000       0.388093        10.5605 
 227   0.0000       0.389153        10.5894 
 228   0.0000       0.389297        10.5933 
 229   0.0000       0.395651        10.7662 
 230   0.0000       0.397607        10.8194 
 231   0.0000       0.399605        10.8738 
 232   0.0000       0.401217        10.9177 
 233   0.0000       0.402449        10.9512 
 234   0.0000       0.407117        11.0782 
 235   0.0000       0.409001        11.1295 
 236   0.0000       0.410245        11.1633 
 237   0.0000       0.410599        11.1730 
 238   0.0000       0.415240        11.2992 
 239   0.0000       0.416880        11.3439 
 240   0.0000       0.419484        11.4147 
 241   0.0000       0.423802        11.5322 
 242   0.0000       0.426674        11.6104 
 243   0.0000       0.429928        11.6989 
 244   0.0000       0.433440        11.7945 
 245   0.0000       0.434617        11.8265 
 246   0.0000       0.437089        11.8938 
 247   0.0000       0.439378        11.9561 
 248   0.0000       0.441597        12.0165 
 249   0.0000       0.443506        12.0684 
 250   0.0000       0.445989        12.1360 
 251   0.0000       0.451757        12.2929 
 252   0.0000       0.454809        12.3760 
 253   0.0000       0.456477        12.4214 
 254   0.0000       0.460538        12.5319 
 255   0.0000       0.463594        12.6150 
 256   0.0000       0.464813        12.6482 
 257   0.0000       0.468431        12.7467 
 258   0.0000       0.470910        12.8141 
 259   0.0000       0.471449        12.8288 
 260   0.0000       0.475107        12.9283 
 261   0.0000       0.476073        12.9546 
 262   0.0000       0.480955        13.0874 
 263   0.0000       0.484394        13.1810 
 264   0.0000       0.485691        13.2163 
 265   0.0000       0.487243        13.2585 
 266   0.0000       0.490455        13.3460 
 267   0.0000       0.494257        13.4494 
 268   0.0000       0.499230        13.5847 
 269   0.0000       0.502384        13.6706 
 270   0.0000       0.503508        13.7012 
 271   0.0000       0.506636        13.7863 
 272   0.0000       0.508101        13.8261 
 273   0.0000       0.510521        13.8920 
 274   0.0000       0.512272        13.9396 
 275   0.0000       0.516947        14.0668 
 276   0.0000       0.520669        14.1681 
 277   0.0000       0.520756        14.1705 
 278   0.0000       0.524424        14.2703 
 279   0.0000       0.527177        14.3452 
 280   0.0000       0.529983        14.4216 
 281   0.0000       0.534229        14.5371 
 282   0.0000       0.535603        14.5745 
 283   0.0000       0.539231        14.6732 
 284   0.0000       0.540006        14.6943 
 285   0.0000       0.543063        14.7775 
 286   0.0000       0.544472        14.8158 
 287   0.0000       0.546486        14.8706 
 288   0.0000       0.549094        14.9416 
 289   0.0000       0.551397        15.0043 
 290   0.0000       0.556453        15.1419 
 291   0.0000       0.557239        15.1632 
 292   0.0000       0.558375        15.1941 
 293   0.0000       0.560213        15.2442 
 294   0.0000       0.563509        15.3339 
 295   0.0000       0.568489        15.4694 
 296   0.0000       0.569114        15.4864 
 297   0.0000       0.570606        15.5270 
 298   0.0000       0.574511        15.6332 
 299   0.0000       0.577618        15.7178 
 300   0.0000       0.580861        15.8060 
 301   0.0000       0.582823        15.8594 
 302   0.0000       0.585958        15.9447 
 303   0.0000       0.586900        15.9704 
 304   0.0000       0.588195        16.0056 
 305   0.0000       0.590490        16.0680 
 306   0.0000       0.592285        16.1169 
 307   0.0000       0.597153        16.2494 
 308   0.0000       0.600235        16.3332 
 309   0.0000       0.603543        16.4232 
 310   0.0000       0.603867        16.4321 
 311   0.0000       0.606799        16.5118 
 312   0.0000       0.609541        16.5865 
 313   0.0000       0.611574        16.6418 
 314   0.0000       0.613312        16.6891 
 315   0.0000       0.614540        16.7225 
 316   0.0000       0.616608        16.7788 
 317   0.0000       0.623439        16.9646 
 318   0.0000       0.624386        16.9904 
 319   0.0000       0.626597        17.0506 
 320   0.0000       0.628697        17.1077 
 321   0.0000       0.630793        17.1648 
 322   0.0000       0.633258        17.2318 
 323   0.0000       0.639380        17.3984 
 324   0.0000       0.641726        17.4623 
 325   0.0000       0.643122        17.5002 
 326   0.0000       0.644766        17.5450 
 327   0.0000       0.647841        17.6286 
 328   0.0000       0.652699        17.7608 
 329   0.0000       0.656640        17.8681 
 330   0.0000       0.657725        17.8976 
 331   0.0000       0.663201        18.0466 
 332   0.0000       0.663849        18.0643 
 333   0.0000       0.669994        18.2315 
 334   0.0000       0.672863        18.3095 
 335   0.0000       0.674040        18.3416 
 336   0.0000       0.677587        18.4381 
 337   0.0000       0.682798        18.5799 
 338   0.0000       0.684004        18.6127 
 339   0.0000       0.685193        18.6451 
 340   0.0000       0.688794        18.7430 
 341   0.0000       0.691161        18.8075 
 342   0.0000       0.693580        18.8733 
 343   0.0000       0.694912        18.9095 
 344   0.0000       0.703786        19.1510 
 345   0.0000       0.708091        19.2681 
 346   0.0000       0.709368        19.3029 
 347   0.0000       0.712754        19.3950 
 348   0.0000       0.714428        19.4406 
 349   0.0000       0.718584        19.5537 
 350   0.0000       0.722042        19.6478 
 351   0.0000       0.724412        19.7123 
 352   0.0000       0.731734        19.9115 
 353   0.0000       0.735122        20.0037 
 354   0.0000       0.739940        20.1348 
 355   0.0000       0.741158        20.1679 
 356   0.0000       0.746274        20.3071 
 357   0.0000       0.751209        20.4414 
 358   0.0000       0.753143        20.4941 
 359   0.0000       0.758724        20.6459 
 360   0.0000       0.763356        20.7720 
 361   0.0000       0.765078        20.8188 
 362   0.0000       0.766800        20.8657 
 363   0.0000       0.770310        20.9612 
 364   0.0000       0.776593        21.1322 
 365   0.0000       0.778367        21.1804 
 366   0.0000       0.783976        21.3331 
 367   0.0000       0.784788        21.3552 
 368   0.0000       0.788676        21.4610 
 369   0.0000       0.788880        21.4665 
 370   0.0000       0.792410        21.5626 
 371   0.0000       0.797236        21.6939 
 372   0.0000       0.800911        21.7939 
 373   0.0000       0.807438        21.9715 
 374   0.0000       0.808975        22.0133 
 375   0.0000       0.813970        22.1492 
 376   0.0000       0.816340        22.2138 
 377   0.0000       0.819227        22.2923 
 378   0.0000       0.822156        22.3720 
 379   0.0000       0.829301        22.5664 
 380   0.0000       0.830327        22.5943 
 381   0.0000       0.835888        22.7457 
 382   0.0000       0.837262        22.7831 
 383   0.0000       0.841764        22.9056 
 384   0.0000       0.844157        22.9707 
 385   0.0000       0.845159        22.9979 
 386   0.0000       0.851371        23.1670 
 387   0.0000       0.853105        23.2142 
 388   0.0000       0.861464        23.4416 
 389   0.0000       0.863775        23.5045 
 390   0.0000       0.865539        23.5525 
 391   0.0000       0.869207        23.6523 
 392   0.0000       0.871657        23.7190 
 393   0.0000       0.875626        23.8270 
 394   0.0000       0.880211        23.9518 
 395   0.0000       0.886474        24.1222 
 396   0.0000       0.887715        24.1559 
 397   0.0000       0.888683        24.1823 
 398   0.0000       0.894764        24.3478 
 399   0.0000       0.899217        24.4689 
 400   0.0000       0.902239        24.5512 
 401   0.0000       0.907500        24.6943 
 402   0.0000       0.909088        24.7376 
 403   0.0000       0.910140        24.7662 
 404   0.0000       0.912037        24.8178 
 405   0.0000       0.916053        24.9271 
 406   0.0000       0.920948        25.0603 
 407   0.0000       0.921950        25.0875 
 408   0.0000       0.926611        25.2144 
 409   0.0000       0.929363        25.2892 
 410   0.0000       0.931389        25.3444 
 411   0.0000       0.935027        25.4434 
 412   0.0000       0.937833        25.5197 
 413   0.0000       0.939646        25.5691 
 414   0.0000       0.941373        25.6161 
 415   0.0000       0.947150        25.7733 
 416   0.0000       0.953983        25.9592 
 417   0.0000       0.955612        26.0035 
 418   0.0000       0.958112        26.0716 
 419   0.0000       0.961166        26.1547 
 420   0.0000       0.963994        26.2316 
 421   0.0000       0.968259        26.3477 
 422   0.0000       0.968750        26.3610 
 423   0.0000       0.974406        26.5149 
 424   0.0000       0.977641        26.6030 
 425   0.0000       0.978989        26.6397 
 426   0.0000       0.982913        26.7464 
 427   0.0000       0.985166        26.8077 
 428   0.0000       0.987984        26.8844 
 429   0.0000       0.993431        27.0326 
 430   0.0000       0.996303        27.1108 
 431   0.0000       0.998869        27.1806 
 432   0.0000       1.001162        27.2430 
 433   0.0000       1.005941        27.3730 
 434   0.0000       1.008604        27.4455 
 435   0.0000       1.009178        27.4611 
 436   0.0000       1.009605        27.4728 
 437   0.0000       1.015507        27.6333 
 438   0.0000       1.019861        27.7518 
 439   0.0000       1.023527        27.8516 
 440   0.0000       1.025828        27.9142 
 441   0.0000       1.027821        27.9684 
 442   0.0000       1.030143        28.0316 
 443   0.0000       1.032228        28.0883 
 444   0.0000       1.035901        28.1883 
 445   0.0000       1.037559        28.2334 
 446   0.0000       1.038608        28.2620 
 447   0.0000       1.042775        28.3753 
 448   0.0000       1.048126        28.5210 
 449   0.0000       1.051133        28.6028 
 450   0.0000       1.053687        28.6723 
 451   0.0000       1.058323        28.7984 
 452   0.0000       1.062088        28.9009 
 453   0.0000       1.064990        28.9799 
 454   0.0000       1.066771        29.0283 
 455   0.0000       1.069193        29.0942 
 456   0.0000       1.072155        29.1748 
 457   0.0000       1.074057        29.2266 
 458   0.0000       1.078102        29.3366 
 459   0.0000       1.080271        29.3957 
 460   0.0000       1.084914        29.5220 
 461   0.0000       1.086404        29.5626 
 462   0.0000       1.089784        29.6545 
 463   0.0000       1.091900        29.7121 
 464   0.0000       1.094853        29.7925 
 465   0.0000       1.097990        29.8778 
 466   0.0000       1.099523        29.9195 
 467   0.0000       1.101898        29.9842 
 468   0.0000       1.105874        30.0924 
 469   0.0000       1.106990        30.1227 
 470   0.0000       1.111774        30.2529 
 471   0.0000       1.114263        30.3206 
 472   0.0000       1.119104        30.4524 
 473   0.0000       1.122293        30.5392 
 474   0.0000       1.124643        30.6031 
 475   0.0000       1.126819        30.6623 
 476   0.0000       1.131088        30.7785 
 477   0.0000       1.132661        30.8213 
 478   0.0000       1.134820        30.8800 
 479   0.0000       1.139375        31.0040 
 480   0.0000       1.143212        31.1084 
 481   0.0000       1.146467        31.1969 
 482   0.0000       1.147752        31.2319 
 483   0.0000       1.150726        31.3128 
 484   0.0000       1.152906        31.3722 
 485   0.0000       1.154920        31.4270 
 486   0.0000       1.157814        31.5057 
 487   0.0000       1.160725        31.5849 
 488   0.0000       1.164781        31.6953 
 489   0.0000       1.168231        31.7892 
 490   0.0000       1.170271        31.8447 
 491   0.0000       1.172461        31.9043 
 492   0.0000       1.176754        32.0211 
 493   0.0000       1.180216        32.1153 
 494   0.0000       1.181319        32.1453 
 495   0.0000       1.186232        32.2790 
 496   0.0000       1.187095        32.3025 
 497   0.0000       1.191572        32.4243 
 498   0.0000       1.192602        32.4524 
 499   0.0000       1.194523        32.5046 
 500   0.0000       1.198696        32.6182 
 501   0.0000       1.201639        32.6983 
 502   0.0000       1.205710        32.8090 
 503   0.0000       1.207598        32.8604 
 504   0.0000       1.211793        32.9746 
 505   0.0000       1.213901        33.0319 
 506   0.0000       1.216421        33.1005 
 507   0.0000       1.219263        33.1778 
 508   0.0000       1.221996        33.2522 
 509   0.0000       1.224122        33.3101 
 510   0.0000       1.229354        33.4524 
 511   0.0000       1.235741        33.6262 
 512   0.0000       1.237258        33.6675 
 513   0.0000       1.239481        33.7280 
 514   0.0000       1.242725        33.8163 
 515   0.0000       1.245950        33.9040 
 516   0.0000       1.249463        33.9996 
 517   0.0000       1.252647        34.0862 
 518   0.0000       1.255345        34.1597 
 519   0.0000       1.259955        34.2851 
 520   0.0000       1.261123        34.3169 
 521   0.0000       1.266561        34.4649 
 522   0.0000       1.270309        34.5669 
 523   0.0000       1.272261        34.6200 
 524   0.0000       1.276286        34.7295 
 525   0.0000       1.278222        34.7822 
 526   0.0000       1.279485        34.8166 
 527   0.0000       1.283430        34.9239 
 528   0.0000       1.289783        35.0968 
 529   0.0000       1.291566        35.1453 
 530   0.0000       1.296193        35.2712 
 531   0.0000       1.299608        35.3641 
 532   0.0000       1.300914        35.3997 
 533   0.0000       1.302763        35.4500 
 534   0.0000       1.306634        35.5553 
 535   0.0000       1.312564        35.7167 
 536   0.0000       1.316663        35.8282 
 537   0.0000       1.319839        35.9146 
 538   0.0000       1.323585        36.0166 
 539   0.0000       1.327045        36.1107 
 540   0.0000       1.334416        36.3113 
 541   0.0000       1.334993        36.3270 
 542   0.0000       1.341671        36.5087 
 543   0.0000       1.343595        36.5611 
 544   0.0000       1.345255        36.6063 
 545   0.0000       1.347261        36.6608 
 546   0.0000       1.350732        36.7553 
 547   0.0000       1.354821        36.8666 
 548   0.0000       1.358936        36.9785 
 549   0.0000       1.360784        37.0288 
 550   0.0000       1.366875        37.1946 
 551   0.0000       1.369005        37.2525 
 552   0.0000       1.374251        37.3953 
 553   0.0000       1.376906        37.4675 
 554   0.0000       1.381674        37.5973 
 555   0.0000       1.382591        37.6222 
 556   0.0000       1.387978        37.7688 
 557   0.0000       1.390010        37.8241 
 558   0.0000       1.390711        37.8432 
 559   0.0000       1.396430        37.9988 
 560   0.0000       1.400617        38.1127 
 561   0.0000       1.406686        38.2779 
 562   0.0000       1.412213        38.4283 
 563   0.0000       1.416521        38.5455 
 564   0.0000       1.418677        38.6042 
 565   0.0000       1.423607        38.7383 
 566   0.0000       1.425842        38.7991 
 567   0.0000       1.432526        38.9810 
 568   0.0000       1.437008        39.1030 
 569   0.0000       1.439899        39.1817 
 570   0.0000       1.442318        39.2475 
 571   0.0000       1.446691        39.3665 
 572   0.0000       1.450436        39.4684 
 573   0.0000       1.452360        39.5207 
 574   0.0000       1.455777        39.6137 
 575   0.0000       1.456704        39.6389 
 576   0.0000       1.461565        39.7712 
 577   0.0000       1.464227        39.8436 
 578   0.0000       1.473617        40.0992 
 579   0.0000       1.475598        40.1531 
 580   0.0000       1.480043        40.2740 
 581   0.0000       1.482643        40.3448 
 582   0.0000       1.486526        40.4504 
 583   0.0000       1.491153        40.5763 
 584   0.0000       1.496256        40.7152 
 585   0.0000       1.497899        40.7599 
 586   0.0000       1.500749        40.8375 
 587   0.0000       1.505062        40.9548 
 588   0.0000       1.507553        41.0226 
 589   0.0000       1.508846        41.0578 
 590   0.0000       1.515954        41.2512 
 591   0.0000       1.517752        41.3001 
 592   0.0000       1.520197        41.3667 
 593   0.0000       1.526434        41.5364 
 594   0.0000       1.528606        41.5955 
 595   0.0000       1.534889        41.7665 
 596   0.0000       1.535043        41.7707 
 597   0.0000       1.538807        41.8731 
 598   0.0000       1.546022        42.0694 
 599   0.0000       1.547048        42.0973 
 600   0.0000       1.551859        42.2282 
 601   0.0000       1.559399        42.4334 
 602   0.0000       1.564781        42.5798 
 603   0.0000       1.568182        42.6724 
 604   0.0000       1.573699        42.8225 
 605   0.0000       1.574610        42.8473 
 606   0.0000       1.575937        42.8834 
 607   0.0000       1.582462        43.0610 
 608   0.0000       1.585790        43.1515 
 609   0.0000       1.595016        43.4026 
 610   0.0000       1.595781        43.4234 
 611   0.0000       1.599870        43.5347 
 612   0.0000       1.604180        43.6519 
 613   0.0000       1.607149        43.7328 
 614   0.0000       1.611537        43.8522 
 615   0.0000       1.613168        43.8965 
 616   0.0000       1.616570        43.9891 
 617   0.0000       1.622950        44.1627 
 618   0.0000       1.626675        44.2641 
 619   0.0000       1.627149        44.2770 
 620   0.0000       1.631286        44.3895 
 621   0.0000       1.633910        44.4609 
 622   0.0000       1.640675        44.6450 
 623   0.0000       1.642207        44.6867 
 624   0.0000       1.648319        44.8530 
 625   0.0000       1.651433        44.9378 
 626   0.0000       1.658553        45.1315 
 627   0.0000       1.660592        45.1870 
 628   0.0000       1.662710        45.2446 
 629   0.0000       1.665130        45.3105 
 630   0.0000       1.666653        45.3519 
 631   0.0000       1.673245        45.5313 
 632   0.0000       1.676092        45.6088 
 633   0.0000       1.683685        45.8154 
 634   0.0000       1.686984        45.9052 
 635   0.0000       1.687345        45.9150 
 636   0.0000       1.695143        46.1272 
 637   0.0000       1.700151        46.2635 
 638   0.0000       1.705750        46.4158 
 639   0.0000       1.706401        46.4335 
 640   0.0000       1.710258        46.5385 
 641   0.0000       1.718181        46.7541 
 642   0.0000       1.720989        46.8305 
 643   0.0000       1.724354        46.9220 
 644   0.0000       1.726901        46.9914 
 645   0.0000       1.731591        47.1190 
 646   0.0000       1.733362        47.1672 
 647   0.0000       1.742701        47.4213 
 648   0.0000       1.743287        47.4372 
 649   0.0000       1.746548        47.5260 
 650   0.0000       1.749606        47.6092 
 651   0.0000       1.754015        47.7292 
 652   0.0000       1.757127        47.8139 
 653   0.0000       1.758837        47.8604 
 654   0.0000       1.761963        47.9455 
 655   0.0000       1.769039        48.1380 
 656   0.0000       1.770004        48.1643 
 657   0.0000       1.779747        48.4294 
 658   0.0000       1.783944        48.5436 
 659   0.0000       1.785907        48.5970 
 660   0.0000       1.788156        48.6582 
 661   0.0000       1.791801        48.7574 
 662   0.0000       1.794980        48.8439 
 663   0.0000       1.803825        49.0846 
 664   0.0000       1.805577        49.1323 
 665   0.0000       1.810152        49.2567 
 666   0.0000       1.812757        49.3276 
[...]
 25 C s       :     2.474107  s :     2.474107
      pz      :     0.738891  p :     2.090338
      px      :     0.701267
      py      :     0.650180
      dz2     :     0.369968  d :     1.720095
      dxz     :     0.365283
      dyz     :     0.272068
      dx2y2   :     0.317328
      dxy     :     0.395449
      f0      :     0.249592  f :     1.313617
      f+1     :     0.149717
      f-1     :     0.149805
      f+2     :     0.128946
      f-2     :     0.210567
      f+3     :     0.209281
      f-3     :     0.215709
 26 H s       :     0.615541  s :     0.615541
      pz      :     0.095437  p :     0.306022
      px      :     0.075798
      py      :     0.134787
      dz2     :     0.043323  d :     0.244783
      dxz     :     0.019915
      dyz     :     0.065260
      dx2y2   :     0.051172
      dxy     :     0.065113
 27 H s       :     0.626828  s :     0.626828
      pz      :     0.130324  p :     0.312462
      px      :     0.081322
      py      :     0.100817
      dz2     :     0.062708  d :     0.235478
      dxz     :     0.073206
      dyz     :     0.051034
      dx2y2   :     0.027586
      dxy     :     0.020944
 28 H s       :     0.630547  s :     0.630547
      pz      :     0.082159  p :     0.302685
      px      :     0.074869
      py      :     0.145657
      dz2     :     0.016347  d :     0.219957
      dxz     :     0.015755
      dyz     :     0.073886
      dx2y2   :     0.058567
      dxy     :     0.055402
 29 H s       :     0.622760  s :     0.622760
      pz      :     0.130550  p :     0.327552
      px      :     0.097091
      py      :     0.099911
      dz2     :     0.069460  d :     0.250490
      dxz     :     0.049555
      dyz     :     0.037558
      dx2y2   :     0.061373
      dxy     :     0.032545
 30 H s       :     0.621004  s :     0.621004
      pz      :     0.096613  p :     0.358226
      px      :     0.157674
      py      :     0.103939
      dz2     :     0.054131  d :     0.277588
      dxz     :     0.062439
      dyz     :     0.022699
      dx2y2   :     0.057766
      dxy     :     0.080552
 31 H s       :     0.628602  s :     0.628602
      pz      :     0.083417  p :     0.320036
      px      :     0.089185
      py      :     0.147435
      dz2     :     0.038255  d :     0.244991
      dxz     :     0.010767
      dyz     :     0.066315
      dx2y2   :     0.046281
      dxy     :     0.083373
 32 H s       :     0.642608  s :     0.642608
      pz      :     0.082240  p :     0.328862
      px      :     0.120461
      py      :     0.126162
      dz2     :     0.021698  d :     0.249982
      dxz     :     0.065094
      dyz     :     0.028991
      dx2y2   :     0.087442
      dxy     :     0.046759
 33 H s       :     0.626764  s :     0.626764
      pz      :     0.134395  p :     0.337329
      px      :     0.108039
      py      :     0.094895
      dz2     :     0.077833  d :     0.258533
      dxz     :     0.060574
      dyz     :     0.055494
      dx2y2   :     0.023163
      dxy     :     0.041470
 34 F s       :     3.413597  s :     3.413597
      pz      :     1.551753  p :     4.889820
      px      :     1.647668
      py      :     1.690399
      dz2     :     0.053530  d :     0.158567
      dxz     :     0.044512
      dyz     :     0.030139
      dx2y2   :     0.012230
      dxy     :     0.018157
      f0      :     0.009132  f :     0.029342
      f+1     :     0.006775
      f-1     :     0.003273
      f+2     :     0.003952
      f-2     :     0.004656
      f+3     :     0.000573
      f-3     :     0.000980
 35 F s       :     3.416753  s :     3.416753
      pz      :     1.690474  p :     4.886328
      px      :     1.660623
      py      :     1.535231
      dz2     :     0.017505  d :     0.157409
      dxz     :     0.014615
      dyz     :     0.038154
      dx2y2   :     0.039119
      dxy     :     0.048015
      f0      :     0.003452  f :     0.028992
      f+1     :     0.001167
      f-1     :     0.003811
      f+2     :     0.002587
      f-2     :     0.004475
      f+3     :     0.006824
      f-3     :     0.006676
 36 F s       :     3.404880  s :     3.404880
      pz      :     1.688447  p :     4.885942
      px      :     1.585172
      py      :     1.612323
      dz2     :     0.015903  d :     0.158626
      dxz     :     0.035775
      dyz     :     0.018812
      dx2y2   :     0.046489
      dxy     :     0.041648
      f0      :     0.003500  f :     0.029101
      f+1     :     0.002261
      f-1     :     0.002339
      f+2     :     0.001670
      f-2     :     0.005478
      f+3     :     0.006720
      f-3     :     0.007132


                      *****************************
                      * MAYER POPULATION ANALYSIS *
                      *****************************

  NA   - Mulliken gross atomic population
  ZA   - Total nuclear charge
  QA   - Mulliken gross atomic charge
  VA   - Mayer's total valence
  BVA  - Mayer's bonded valence
  FA   - Mayer's free valence

  ATOM       NA         ZA         QA         VA         BVA        FA
  0 C      6.2436     6.0000    -0.2436     4.8175     4.8175    -0.0000
  1 C      5.1514     6.0000     0.8486     2.4605     2.4605     0.0000
  2 Cl    17.5336    17.0000    -0.5336     0.4404     0.4404    -0.0000
  3 C      6.4125     6.0000    -0.4125     1.3714     1.3714     0.0000
  4 H      0.6285     1.0000     0.3715     0.7954     0.7954    -0.0000
  5 C      5.4901     6.0000     0.5099     1.3917     1.3917     0.0000
  6 C      5.2292     6.0000     0.7708     2.7355     2.7355    -0.0000
  7 S     13.6957    16.0000     2.3043     3.6032     3.6032     0.0000
  8 C      7.5922     6.0000    -1.5922     2.8985     2.8985     0.0000
  9 H      0.7170     1.0000     0.2830     1.0941     1.0941     0.0000
 10 S     13.8628    16.0000     2.1372     4.5314     4.5314     0.0000
 11 O      9.0082     8.0000    -1.0082     1.3060     1.3060     0.0000
 12 O      9.0428     8.0000    -1.0428     1.3781     1.3781    -0.0000
 13 N      8.1257     7.0000    -1.1257     2.4747     2.4747     0.0000
 14 H      0.8664     1.0000     0.1336     1.0704     1.0704     0.0000
 15 N      7.7098     7.0000    -0.7098     1.6504     1.6504     0.0000
 16 C      5.0250     6.0000     0.9750     2.8242     2.8242     0.0000
 17 N      7.6678     7.0000    -0.6678     2.5595     2.5595     0.0000
 18 O      9.0384     8.0000    -1.0384     1.1824     1.1824     0.0000
 19 O      9.1379     8.0000    -1.1379     1.4030     1.4030     0.0000
 20 H      0.9374     1.0000     0.0626     1.0255     1.0255    -0.0000
 21 C      7.1173     6.0000    -1.1173     3.9071     3.9071     0.0000
 22 C      6.4311     6.0000    -0.4311     3.5341     3.5341     0.0000
 23 S     16.5541    16.0000    -0.5541     1.5689     1.5689     0.0000
 24 C      6.5239     6.0000    -0.5239     3.9276     3.9276    -0.0000
 25 C      4.8168     6.0000     1.1832     3.3892     3.3892     0.0000
 26 H      0.5107     1.0000     0.4893     0.5819     0.5819    -0.0000
 27 H      0.6955     1.0000     0.3045     1.0195     1.0195    -0.0000
 28 H      0.6561     1.0000     0.3439     0.9690     0.9690     0.0000
 29 H      0.6284     1.0000     0.3716     0.9630     0.9630    -0.0000
 30 H      0.6121     1.0000     0.3879     0.8215     0.8215     0.0000
 31 H      0.7407     1.0000     0.2593     0.7776     0.7776    -0.0000
 32 H      0.6992     1.0000     0.3008     0.8962     0.8962    -0.0000
 33 H      0.7061     1.0000     0.2939     1.0228     1.0228    -0.0000
 34 F      9.3937     9.0000    -0.3937     0.9317     0.9317     0.0000
 35 F      9.4000     9.0000    -0.4000     0.9293     0.9293    -0.0000
 36 F      9.3983     9.0000    -0.3983     0.9223     0.9223     0.0000

  Mayer bond orders larger than 0.100000
B(  0-C ,  1-C ) :   1.1968 B(  0-C ,  2-Cl) :   0.8359 B(  0-C ,  3-C ) :  -0.3758 
B(  0-C ,  6-C ) :   0.4767 B(  0-C ,  8-C ) :   1.3733 B(  0-C ,  9-H ) :   0.1015 
B(  0-C , 10-S ) :   0.7094 B(  0-C , 11-O ) :   0.2088 B(  0-C , 13-N ) :   0.2179 
B(  0-C , 16-C ) :  -0.1185 B(  1-C ,  2-Cl) :  -0.2164 B(  1-C ,  3-C ) :   1.1958 
B(  1-C ,  4-H ) :  -0.1430 B(  1-C ,  5-C ) :   0.2013 B(  1-C , 12-O ) :   0.2403 
B(  1-C , 13-N ) :  -0.1384 B(  2-Cl,  3-C ) :  -0.1116 B(  2-Cl,  5-C ) :  -0.1637 
B(  2-Cl,  8-C ) :   0.1329 B(  3-C ,  4-H ) :   0.7564 B(  3-C ,  5-C ) :   0.3791 
B(  3-C ,  6-C ) :   0.1666 B(  3-C ,  7-S ) :  -0.1217 B(  3-C ,  8-C ) :  -0.2221 
B(  3-C , 13-N ) :  -0.1127 B(  3-C , 16-C ) :   0.1181 B(  3-C , 17-N ) :  -0.1227 
B(  4-H ,  6-C ) :   0.1220 B(  5-C ,  6-C ) :   0.6910 B(  5-C ,  7-S ) :   0.2501 
B(  5-C ,  8-C ) :  -0.3616 B(  5-C , 15-N ) :   0.5923 B(  6-C ,  7-S ) :   0.5675 
B(  6-C ,  8-C ) :   0.4633 B(  6-C , 12-O ) :  -0.1377 B(  6-C , 15-N ) :  -0.3264 
B(  6-C , 17-N ) :   0.2771 B(  6-C , 18-O ) :   0.3266 B(  7-S ,  8-C ) :   0.1164 
B(  7-S , 17-N ) :   1.1233 B(  7-S , 18-O ) :   0.6950 B(  7-S , 19-O ) :   1.0223 
B(  8-C ,  9-H ) :   0.9014 B(  8-C , 10-S ) :   0.1458 B(  8-C , 12-O ) :  -0.1757 
B(  8-C , 13-N ) :   0.1469 B( 10-S , 11-O ) :   1.1633 B( 10-S , 12-O ) :   1.1814 
B( 10-S , 13-N ) :   1.3093 B( 12-O , 13-N ) :   0.1074 B( 13-N , 14-H ) :   0.9080 
B( 15-N , 16-C ) :   0.1517 B( 15-N , 20-H ) :   1.1617 B( 15-N , 22-C ) :   0.1111 
B( 16-C , 17-N ) :   0.3336 B( 16-C , 19-O ) :   0.1263 B( 16-C , 22-C ) :   0.8152 
B( 16-C , 23-S ) :   0.3725 B( 16-C , 26-H ) :   0.8954 B( 17-N , 19-O ) :   0.1297 
B( 17-N , 21-C ) :   0.8935 B( 17-N , 26-H ) :  -0.2392 B( 19-O , 21-C ) :   0.1373 
B( 20-H , 23-S ) :  -0.1271 B( 21-C , 27-H ) :   0.9614 B( 21-C , 28-H ) :   0.9148 
B( 21-C , 29-H ) :   0.8961 B( 22-C , 23-S ) :   0.6165 B( 22-C , 30-H ) :   0.8252 
B( 22-C , 31-H ) :   1.0679 B( 23-S , 24-C ) :   0.8474 B( 23-S , 31-H ) :  -0.2039 
B( 24-C , 25-C ) :   1.0213 B( 24-C , 32-H ) :   0.8816 B( 24-C , 33-H ) :   0.8755 
B( 24-C , 35-F ) :   0.1128 B( 25-C , 34-F ) :   0.7450 B( 25-C , 35-F ) :   0.7340 
B( 25-C , 36-F ) :   0.8036 

-------
TIMINGS
-------

Total SCF time: 0 days 0 hours 12 min 2 sec 

Total time                  ....     722.371 sec
Sum of individual times     ....     716.081 sec  ( 99.1%)

Fock matrix formation       ....     697.194 sec  ( 96.5%)
  Split-RI-J                ....      42.654 sec  (  6.1% of F)
  Chain of spheres X        ....     596.397 sec  ( 85.5% of F)
  XC integration            ....      56.068 sec  (  8.0% of F)
    Basis function eval.    ....       7.694 sec  ( 13.7% of XC)
    Density eval.           ....      25.441 sec  ( 45.4% of XC)
    XC-Functional eval.     ....       0.365 sec  (  0.7% of XC)
    XC-Potential eval.      ....      20.225 sec  ( 36.1% of XC)
Diagonalization             ....       2.860 sec  (  0.4%)
Density matrix formation    ....       0.467 sec  (  0.1%)
Population analysis         ....       0.494 sec  (  0.1%)
Initial guess               ....       3.905 sec  (  0.5%)
Orbital Transformation      ....       0.000 sec  (  0.0%)
Orbital Orthonormalization  ....       0.000 sec  (  0.0%)
DIIS solution               ....       1.910 sec  (  0.3%)
SOSCF solution              ....       2.727 sec  (  0.4%)
Grid generation             ....       6.525 sec  (  0.9%)

Maximum memory used throughout the entire SCF-calculation: 461.4 MB


           ************************************************************
           *        Program running with 8 parallel MPI-processes     *
           *              working on a common directory               *
           ************************************************************

------------------------------------------------------------------------------
                                ORCA  MP2 
------------------------------------------------------------------------------

Freezing NCore=82 chemical core electrons

   <<< Use J-auxbasis for calculation of Separable RI-J derivative contributions (Dim=1365) >>> 


-------------
RI-MP2 ENERGY
-------------
Dimension of the basis                    ... 1442
Memory devoted to MP2                     ... 3000 MB   
Data format for buffers                   ... DOUBLE
Compression type for matrix containers    ... UNCOMPRESSED
Scaling for aa/bb pairs                   ...   2.500e-01
Scaling for ab pairs                      ...   5.300e-01
Overall scaling of the MP2 energy         ...   1.000e+00
Calculating two index integrals           ... done (    0.121 sec)
Cholesky decomposition of V**-1           ... done (    1.147 sec)

-----------------
RI-TRANSFORMATION (AUX index driven)
-----------------

Dimension of the orbital-basis         ... 1442
Dimension of the aux-basis             ... 3366
Transformation of internal/external MOs...   41- 111 to  112-1441
Number Format for Storage              ... Double (8 Byte)
Integral mode                          ... Direct

First Phase: integral generation and transformation of MO indices
  Aux angular momentum 0               ... done (    2.069 sec)
  Aux angular momentum 1               ... done (    3.775 sec)
  Aux angular momentum 2               ... done (    5.395 sec)
  Aux angular momentum 3               ... done (    5.110 sec)
  Aux angular momentum 4               ... done (    2.775 sec)
Closing buffer VIA ( 2.37 GB; CompressionRatio= 1.00)
  Phase 1 completed in    19.466 sec
Second Phase: sorting and transformation of aux index

IA-Transformation
Memory available                       ... 2818 MB 
Max. # MO pairs treated in a batch     ... 9    
# of internal orbitals                 ... 71
# batches for internal orbitals        ... 1
Closing buffer IAV ( 2.37 GB; CompressionRatio= 1.00)
(ia|v) transformation done in     4.974 sec

  Phase 2 completed in     5.500 sec
RI-Integral transformation completed in    24.985 sec
Opening buffers                              ... done

Starting loop over batches of integrals:

Operator 0  - window                       ... ( 41-111)x(112-1441)
Operator 0  - Memory available             ...  3000 MB
Operator 0  - Memory needed per MO         ...  34.2 MB
Operator 0  - Number of orbitals per batch ... 9
Operator 0  - Number of batches            ... 1

OPERATOR  0   PASS   0:  MOs    41 ...   49 +   50 ...   58 +   59 ...   67 +   68 ...   76
                            +   77 ...   85 +   86 ...   94 +   95 ...  103 +  104 ...  111
  Reading integrals       ... ok
  Internal MO  43
  Internal MO  46
  Internal MO  49
Time spent in pair loops =     8.719 sec
Deleting buffer (Ka|jb)[aa] ...done

-----------------------------------------------
 RI-MP2 CORRELATION ENERGY:     -2.544653568 Eh
-----------------------------------------------


-------
TIMINGS
-------

Total time                :  129.817 sec
Integral trafo            :   25.005 sec ( 19.3%)
I/O of integrals          :    0.209 sec (  0.2%)
K(i,j) Operators          :    7.444 sec (  5.7%)
T(i,j) pair energies      :    0.642 sec (  0.5%)
V-calculation             :    0.121 sec (  0.1%)
V**(-1/2)                 :    1.147 sec (  0.9%)
Gamma(ia|P)               :    0.000 sec (  0.0%)
Gamma-Trafo               :    0.000 sec (  0.0%)
D(virtual)                :    0.000 sec (  0.0%)
D(internal)               :    0.000 sec (  0.0%)
W(virtual)                :    0.000 sec (  0.0%)
W(internal)               :    0.000 sec (  0.0%)
L(virtual)                :    0.000 sec (  0.0%)
L(internal)               :    0.000 sec (  0.0%)
G(D)                      :    0.000 sec (  0.0%)
G(Z)                      :    0.000 sec (  0.0%)
Z-Vector Solution         :    0.000 sec (  0.0%)
3-Index Derivative        :    0.000 sec (  0.0%)
2-Index Derivative        :    0.000 sec (  0.0%)
Separable Gradient (RIJ)  :    0.000 sec (  0.0%)
Separable Gradient (COSX) :    0.000 sec (  0.0%)


---------------------------------------
MP2 TOTAL ENERGY:    -2843.271849420 Eh
---------------------------------------

Maximum memory used throughout the entire MP2-calculation: 603.1 MB


-------------------------------------------------------------------------------
                          DFT DISPERSION CORRECTION                            
                                                                               
                              DFTD3 V3.1  Rev 1                                
                          USING Becke-Johnson damping                          
-------------------------------------------------------------------------------
The DSD-PBEP86 functional is recognized
Active option DFTDOPT                   ...         4   

molecular C6(AA) [au] = 22194.564328 


            DFT-D V3
 parameters
 s6 scaling factor         :     0.4180 
 a1 scaling factor         :     0.0000 
 s8 scaling factor         :     0.0000 
 a2 scaling factor         :     5.6500 
 ad hoc parameters k1-k3   :    16.0000     1.3333    -4.0000 

 Edisp/kcal,au: -21.448763944904  -0.034180777412 
 E6   /kcal   : -21.448763945 
 E8   /kcal   :  -0.000000000 
 % E8         :   0.000000000 

-------------------------   ----------------
Dispersion correction           -0.034180777
-------------------------   ----------------


-------------------------   --------------------
FINAL SINGLE POINT ENERGY     -2843.306030197735
-------------------------   --------------------


                            ***************************************
                            *     ORCA property calculations      *
                            ***************************************


  WARNING: The energy has been calculated at the MP2 level but the densities
           used in the property calculations are still SCF densities
           MP2 response densities have not been calculated 
           use %mp2 Density relaxed end
           or  %mp2 Density unrelaxed end

                                    ---------------------
                                    Active property flags
                                    ---------------------
   (+) Dipole Moment


------------------------------------------------------------------------------
                       ORCA ELECTRIC PROPERTIES CALCULATION
------------------------------------------------------------------------------

Dipole Moment Calculation                       ... on
Quadrupole Moment Calculation                   ... off
Polarizability Calculation                      ... off
GBWName                                         ... A.35.avtz.gbw
Electron density                                ... A.35.avtz.scfp
The origin for moment calculation is the CENTER OF MASS  = (-0.636800, -0.504451 -6.882049)

-------------
DIPOLE MOMENT
-------------
                                X             Y             Z
Electronic contribution:     -7.75115      -7.96947      -7.73079
Nuclear contribution   :      8.39950       5.07265      -1.28993
                        -----------------------------------------
Total Dipole Moment    :      0.64835      -2.89683      -9.02072
                        -----------------------------------------
Magnitude (a.u.)       :      9.49659
Magnitude (Debye)      :     24.13843



--------------------
Rotational spectrum 
--------------------
 
Rotational constants in cm-1:     0.011595     0.002359     0.002104 
Rotational constants in MHz :   347.602072    70.720622    63.076273 

 Dipole components along the rotational axes: 
x,y,z [a.u.] :    -9.248613     1.811251    -1.169546 
x,y,z [Debye]:   -23.508106     4.603835    -2.972749 

 

Timings for individual modules:

Sum of individual times         ...      862.447 sec (=  14.374 min)
GTO integral calculation        ...        6.372 sec (=   0.106 min)   0.7 %
SCF iterations                  ...      724.409 sec (=  12.073 min)  84.0 %
MP2 module                      ...      131.667 sec (=   2.194 min)  15.3 %
                             ****ORCA TERMINATED NORMALLY****
TOTAL RUN TIME: 0 days 0 hours 14 minutes 25 seconds 947 msec
