
                                 *****************
                                 * O   R   C   A *
                                 *****************

                                            #,                                       
                                            ###                                      
                                            ####                                     
                                            #####                                    
                                            ######                                   
                                           ########,                                 
                                     ,,################,,,,,                         
                               ,,#################################,,                 
                          ,,##########################################,,             
                       ,#########################################, ''#####,          
                    ,#############################################,,   '####,        
                  ,##################################################,,,,####,       
                ,###########''''           ''''###############################       
              ,#####''   ,,,,##########,,,,          '''####'''          '####       
            ,##' ,,,,###########################,,,                        '##       
           ' ,,###''''                  '''############,,,                           
         ,,##''                                '''############,,,,        ,,,,,,###''
      ,#''                                            '''#######################'''  
     '                                                          ''''####''''         
             ,#######,   #######,   ,#######,      ##                                
            ,#'     '#,  ##    ##  ,#'     '#,    #''#        ######   ,####,        
            ##       ##  ##   ,#'  ##            #'  '#       #        #'  '#        
            ##       ##  #######   ##           ,######,      #####,   #    #        
            '#,     ,#'  ##    ##  '#,     ,#' ,#      #,         ##   #,  ,#        
             '#######'   ##     ##  '#######'  #'      '#     #####' # '####'        



                  #######################################################
                  #                        -***-                        #
                  #          Department of theory and spectroscopy      #
                  #    Directorship and core code : Frank Neese         #
                  #        Max Planck Institute fuer Kohlenforschung    #
                  #                Kaiser Wilhelm Platz 1               #
                  #                 D-45470 Muelheim/Ruhr               #
                  #                      Germany                        #
                  #                                                     #
                  #                  All rights reserved                #
                  #                        -***-                        #
                  #######################################################


                         Program Version 5.0.3 -  RELEASE  -


 With contributions from (in alphabetic order):
   Daniel Aravena         : Magnetic Suceptibility
   Michael Atanasov       : Ab Initio Ligand Field Theory (pilot matlab implementation)
   Alexander A. Auer      : GIAO ZORA, VPT2 properties, NMR spectrum
   Ute Becker             : Parallelization
   Giovanni Bistoni       : ED, misc. LED, open-shell LED, HFLD
   Martin Brehm           : Molecular dynamics
   Dmytro Bykov           : SCF Hessian
   Vijay G. Chilkuri      : MRCI spin determinant printing, contributions to CSF-ICE
   Dipayan Datta          : RHF DLPNO-CCSD density
   Achintya Kumar Dutta   : EOM-CC, STEOM-CC
   Dmitry Ganyushin       : Spin-Orbit,Spin-Spin,Magnetic field MRCI
   Miquel Garcia          : C-PCM and meta-GGA Hessian, CC/C-PCM, Gaussian charge scheme
   Yang Guo               : DLPNO-NEVPT2, F12-NEVPT2, CIM, IAO-localization
   Andreas Hansen         : Spin unrestricted coupled pair/coupled cluster methods
   Benjamin Helmich-Paris : MC-RPA, TRAH-SCF, COSX integrals
   Lee Huntington         : MR-EOM, pCC
   Robert Izsak           : Overlap fitted RIJCOSX, COSX-SCS-MP3, EOM
   Marcus Kettner         : VPT2
   Christian Kollmar      : KDIIS, OOCD, Brueckner-CCSD(T), CCSD density, CASPT2, CASPT2-K
   Simone Kossmann        : Meta GGA functionals, TD-DFT gradient, OOMP2, MP2 Hessian
   Martin Krupicka        : Initial AUTO-CI
   Lucas Lang             : DCDCAS
   Marvin Lechner         : AUTO-CI (C++ implementation), FIC-MRCC
   Dagmar Lenk            : GEPOL surface, SMD
   Dimitrios Liakos       : Extrapolation schemes; Compound Job, initial MDCI parallelization
   Dimitrios Manganas     : Further ROCIS development; embedding schemes
   Dimitrios Pantazis     : SARC Basis sets
   Anastasios Papadopoulos: AUTO-CI, single reference methods and gradients
   Taras Petrenko         : DFT Hessian,TD-DFT gradient, ASA, ECA, R-Raman, ABS, FL, XAS/XES, NRVS
   Peter Pinski           : DLPNO-MP2, DLPNO-MP2 Gradient
   Christoph Reimann      : Effective Core Potentials
   Marius Retegan         : Local ZFS, SOC
   Christoph Riplinger    : Optimizer, TS searches, QM/MM, DLPNO-CCSD(T), (RO)-DLPNO pert. Triples
   Tobias Risthaus        : Range-separated hybrids, TD-DFT gradient, RPA, STAB
   Michael Roemelt        : Original ROCIS implementation
   Masaaki Saitow         : Open-shell DLPNO-CCSD energy and density
   Barbara Sandhoefer     : DKH picture change effects
   Avijit Sen             : IP-ROCIS
   Kantharuban Sivalingam : CASSCF convergence, NEVPT2, FIC-MRCI
   Bernardo de Souza      : ESD, SOC TD-DFT
   Georgi Stoychev        : AutoAux, RI-MP2 NMR, DLPNO-MP2 response
   Willem Van den Heuvel  : Paramagnetic NMR
   Boris Wezisla          : Elementary symmetry handling
   Frank Wennmohs         : Technical directorship


 We gratefully acknowledge several colleagues who have allowed us to
 interface, adapt or use parts of their codes:
   Stefan Grimme, W. Hujo, H. Kruse, P. Pracht,  : VdW corrections, initial TS optimization,
                  C. Bannwarth, S. Ehlert          DFT functionals, gCP, sTDA/sTD-DF
   Ed Valeev, F. Pavosevic, A. Kumar             : LibInt (2-el integral package), F12 methods
   Garnet Chan, S. Sharma, J. Yang, R. Olivares  : DMRG
   Ulf Ekstrom                                   : XCFun DFT Library
   Mihaly Kallay                                 : mrcc  (arbitrary order and MRCC methods)
   Jiri Pittner, Ondrej Demel                    : Mk-CCSD
   Frank Weinhold                                : gennbo (NPA and NBO analysis)
   Christopher J. Cramer and Donald G. Truhlar   : smd solvation model
   Lars Goerigk                                  : TD-DFT with DH, B97 family of functionals
   V. Asgeirsson, H. Jonsson                     : NEB implementation
   FAccTs GmbH                                   : IRC, NEB, NEB-TS, DLPNO-Multilevel, CI-OPT
                                                   MM, QMMM, 2- and 3-layer-ONIOM, Crystal-QMMM,
                                                   LR-CPCM, SF, NACMEs, symmetry and pop. for TD-DFT,
                                                   nearIR, NL-DFT gradient (VV10), updates on ESD,
                                                   ML-optimized integration grids
   S Lehtola, MJT Oliveira, MAL Marques          : LibXC Library
   Liviu Ungur et al                             : ANISO software


 Your calculation uses the libint2 library for the computation of 2-el integrals
 For citations please refer to: http://libint.valeyev.net

 Your ORCA version has been built with support for libXC version: 5.1.0
 For citations please refer to: https://tddft.org/programs/libxc/

 This ORCA versions uses:
   CBLAS   interface :  Fast vector & matrix operations
   LAPACKE interface :  Fast linear algebra routines
   SCALAPACK package :  Parallel linear algebra routines
   Shared memory     :  Shared parallel matrices
   BLAS/LAPACK       :  OpenBLAS 0.3.15  USE64BITINT DYNAMIC_ARCH NO_AFFINITY SkylakeX SINGLE_THREADED
        Core in use  :  SkylakeX
   Copyright (c) 2011-2014, The OpenBLAS Project


Your calculation utilizes the atom-pairwise dispersion correction
with the Becke-Johnson damping scheme (D3BJ)
Cite in your paper:
S.Grimme, S.Ehrlich, L.Goerigk, J Comput Chem, (2011), 32, 1456–1465 
S.Grimme, J.Antony, S.Ehrlich and H.Krieg, J.Chem.Phys., 132, (2010), 154104 
   

================================================================================

----- Orbital basis set information -----
Your calculation utilizes the basis: aug-cc-pVTZ 
    H, B-Ne : Obtained from the ccRepo (grant-hill.group.shef.ac.uk/ccrepo) Feb. 2017
              R. A. Kendall, T. H. Dunning, Jr., R. J. Harrison, J. Chem. Phys. 96, 6796 (1992)
         He : Obtained from the ccRepo (grant-hill.group.shef.ac.uk/ccrepo) Feb. 2017
              D. E. Woon, T. H. Dunning, Jr., J. Chem. Phys. 100, 2975 (1994)
  Li-Be, Na : Obtained from the ccRepo (grant-hill.group.shef.ac.uk/ccrepo) Feb. 2017
              B. P. Prascher, D. E. Woon, K. A. Peterson, T. H. Dunning, Jr., A. K. Wilson, Theor. Chem. Acc. 128, 69 (2011)
         Mg : Obtained from the Peterson Research Group Website (tyr0.chem.wsu.edu/~kipeters) Feb. 2017
              B. P. Prascher, D. E. Woon, K. A. Peterson, T. H. Dunning, Jr., A. K. Wilson, Theor. Chem. Acc. 128, 69 (2011)
      Al-Ar : Obtained from the ccRepo (grant-hill.group.shef.ac.uk/ccrepo) Feb. 2017
              D. E. Woon, T. H. Dunning, Jr., J. Chem. Phys. 98, 1358 (1993)
      Sc-Zn : Obtained from the ccRepo (grant-hill.group.shef.ac.uk/ccrepo) Feb. 2017
              N. B. Balabanov, K. A. Peterson, J. Chem. Phys. 123, 064107 (2005)
              N. B. Balabanov, K. A. Peterson, J. Chem. Phys. 125, 074110 (2006)
      Ga-Kr : Obtained from the ccRepo (grant-hill.group.shef.ac.uk/ccrepo) Feb. 2017
              A. K. Wilson, D. E. Woon, K. A. Peterson, T. H. Dunning, Jr., J. Chem. Phys. 110, 7667 (1999)
     Ag, Au : Obtained from the Peterson Research Group Website (tyr0.chem.wsu.edu/~kipeters) Feb. 2017
              K. A. Peterson, C. Puzzarini, Theor. Chem. Acc. 114, 283 (2005)

----- AuxJ basis set information -----
Your calculation utilizes the auxiliary basis: def2/J
   F. Weigend, Phys. Chem. Chem. Phys. 8, 1057 (2006).

----- AuxC basis set information -----
Your calculation utilizes the auxiliary basis: aug-cc-pVTZ/C 
  H-He, B-F, Al-Ar, Ga-Kr : Obtained from the EMSL Basis Set Exchange (bse.pnl.gov) Feb. 2017
                            F. Weigend, A. Kohn, C. Hattig, J. Chem. Phys. 116, 3175 (2002)
                   Be, Mg : Obtained from the TURBOMOLE 7.0 basis set library
                            C. Haettig, Phys. Chem. Chem. Phys. 7, 59 (2005)
                       Ne : Obtained from the EMSL Basis Set Exchange (bse.pnl.gov) Feb. 2017
                            C. Haettig, Phys. Chem. Chem. Phys. 7, 59 (2005)
                            F. Weigend, A. Kohn, C. Hattig, J. Chem. Phys. 116, 3175 (2002)
                    Sc-Zn : Obtained from the EMSL Basis Set Exchange (bse.pnl.gov) Feb. 2017
                            J. G. Hill, J. A. Platts, J. Chem. Phys. 128, 044104 (2008)

================================================================================
                                        WARNINGS
                       Please study these warnings very carefully!
================================================================================


WARNING: No MP2 level density has been requested!
         To caclulate MP2 level properties use
         %mp2 Density relaxed end
         or
         %mp2 Density unrelaxed end
         Otherwise for double-hybrid DFT only the energy is correct!

WARNING: There are different parametrizations of Gershom Martin's DSD-DFs
         for use with and without D3(BJ)!
         You are using the D3(BJ) parametrized version,
         consistent with the GMTKN55 benchmark (L. Goerigk et al., PCCP 2017, 19, 32184)

WARNING: The frozen-core approximation is turned on by default for 
         the MP2 part of double-hybrid DFT.

INFO   : the flag for use of the SHARK integral package has been found!

================================================================================
                                       INPUT FILE
================================================================================
NAME = A.36.avtz.com
|  1> !PAL8
|  2> !RI-DSD-PBEP86 D3BJ aug-cc-pVTZ aug-cc-pVTZ/C TightSCF
|  3> %maxcore 3000
|  4> 
|  5> 
|  6> * xyz -1 1
|  7> C -1.9076353495  1.2147483907 -1.1290807528
|  8> C -2.8663787225  0.2891843439 -1.540502982
|  9> Cl -4.5130032636  0.3558891051 -0.9565503852
| 10> C -2.5567704213 -0.7240245014 -2.4450447946
| 11> H -3.3285447141 -1.4269965631 -2.7433255516
| 12> C -1.2701031693 -0.8206460953 -2.9652732579
| 13> C -0.2919575403  0.0867543829 -2.5588289483
| 14> C -0.6179219028  1.0894441289 -1.6453410569
| 15> S -2.2562358384  2.6348378622 -0.000001148
| 16> O -2.7476278624  1.9493506902  1.2152118754
| 17> O -0.9270302816  3.2653003824  0.0898938118
| 18> N -3.2708956651  3.5739083612 -0.7200722767
| 19> H -4.201687822  3.2004326588 -0.5269866378
| 20> H  0.1262017593  1.8023671552 -1.3043548861
| 21> C  1.091035257  0.0724667681 -3.1868950118
| 22> N  1.4820358283 -1.234243399 -3.7067889014
| 23> C  1.1386827147  0.9037621115 -4.4668739924
| 24> C  1.7207478031 -1.2887388872 -5.0549842586
| 25> C  1.512374021  0.1096435602 -5.5427967179
| 26> O  2.0341612299 -2.2719650403 -5.7021360876
| 27> C  0.8720004636  2.256267963 -4.629149178
| 28> C  0.9998698767  2.7873818634 -5.9146841313
| 29> C  1.3763543747  1.9852955237 -6.9999754829
| 30> C  1.6368283078  0.6259531713 -6.8255611566
| 31> O  2.0065521119  0.535614322 -2.2214121438
| 32> H -1.0378846531 -1.5983807362 -3.6880379603
| 33> H  1.4929826292 -2.0611821021 -3.1239495479
| 34> H  0.5582919926  2.8718098281 -3.7896999425
| 35> H  0.7920473533  3.8410091 -6.0775303461
| 36> H  1.4588788508  2.4291416303 -7.9879943844
| 37> H  1.9239501164 -0.0168266268 -7.6527644842
| 38> H  2.8569605157  0.6826426482 -2.6632472815
| 39> *
| 40> 
| 41>                          ****END OF INPUT****
================================================================================

                       ****************************
                       * Single Point Calculation *
                       ****************************

---------------------------------
CARTESIAN COORDINATES (ANGSTROEM)
---------------------------------
  C     -1.907635    1.214748   -1.129081
  C     -2.866379    0.289184   -1.540503
  Cl    -4.513003    0.355889   -0.956550
  C     -2.556770   -0.724025   -2.445045
  H     -3.328545   -1.426997   -2.743326
  C     -1.270103   -0.820646   -2.965273
  C     -0.291958    0.086754   -2.558829
  C     -0.617922    1.089444   -1.645341
  S     -2.256236    2.634838   -0.000001
  O     -2.747628    1.949351    1.215212
  O     -0.927030    3.265300    0.089894
  N     -3.270896    3.573908   -0.720072
  H     -4.201688    3.200433   -0.526987
  H      0.126202    1.802367   -1.304355
  C      1.091035    0.072467   -3.186895
  N      1.482036   -1.234243   -3.706789
  C      1.138683    0.903762   -4.466874
  C      1.720748   -1.288739   -5.054984
  C      1.512374    0.109644   -5.542797
  O      2.034161   -2.271965   -5.702136
  C      0.872000    2.256268   -4.629149
  C      0.999870    2.787382   -5.914684
  C      1.376354    1.985296   -6.999975
  C      1.636828    0.625953   -6.825561
  O      2.006552    0.535614   -2.221412
  H     -1.037885   -1.598381   -3.688038
  H      1.492983   -2.061182   -3.123950
  H      0.558292    2.871810   -3.789700
  H      0.792047    3.841009   -6.077530
  H      1.458879    2.429142   -7.987994
  H      1.923950   -0.016827   -7.652764
  H      2.856961    0.682643   -2.663247

----------------------------
CARTESIAN COORDINATES (A.U.)
----------------------------
  NO LB      ZA    FRAG     MASS         X           Y           Z
   0 C     6.0000    0    12.011   -3.604908    2.295542   -2.133653
   1 C     6.0000    0    12.011   -5.416671    0.546479   -2.911129
   2 Cl   17.0000    0    35.453   -8.528340    0.672533   -1.807618
   3 C     6.0000    0    12.011   -4.831596   -1.368208   -4.620465
   4 H     1.0000    0     1.008   -6.290038   -2.696633   -5.184134
   5 C     6.0000    0    12.011   -2.400147   -1.550796   -5.603554
   6 C     6.0000    0    12.011   -0.551720    0.163942   -4.835486
   7 C     6.0000    0    12.011   -1.167703    2.058751   -3.109244
   8 S    16.0000    0    32.060   -4.263668    4.979122   -0.000002
   9 O     8.0000    0    15.999   -5.192264    3.683739    2.296418
  10 O     8.0000    0    15.999   -1.751833    6.170523    0.169875
  11 N     7.0000    0    14.007   -6.181097    6.753708   -1.360739
  12 H     1.0000    0     1.008   -7.940039    6.047941   -0.995860
  13 H     1.0000    0     1.008    0.238487    3.405980   -2.464874
  14 C     6.0000    0    12.011    2.061758    0.136942   -6.022359
  15 N     7.0000    0    14.007    2.800642   -2.332382   -7.004816
  16 C     6.0000    0    12.011    2.151798    1.707863   -8.441169
  17 C     6.0000    0    12.011    3.251742   -2.435364   -9.552536
  18 C     6.0000    0    12.011    2.857973    0.207196  -10.474368
  19 O     8.0000    0    15.999    3.844008   -4.293392  -10.775476
  20 C     6.0000    0    12.011    1.647842    4.263729   -8.747824
  21 C     6.0000    0    12.011    1.889480    5.267388  -11.177133
  22 C     6.0000    0    12.011    2.600933    3.751665  -13.228037
  23 C     6.0000    0    12.011    3.093157    1.182880  -12.898441
  24 O     8.0000    0    15.999    3.791834    1.012164   -4.197861
  25 H     1.0000    0     1.008   -1.961318   -3.020502   -6.969382
  26 H     1.0000    0     1.008    2.821328   -3.895070   -5.903409
  27 H     1.0000    0     1.008    1.055019    5.426934   -7.161495
  28 H     1.0000    0     1.008    1.496753    7.258455  -11.484868
  29 H     1.0000    0     1.008    2.756881    4.590412  -15.095122
  30 H     1.0000    0     1.008    3.635739   -0.031798  -14.461629
  31 H     1.0000    0     1.008    5.398873    1.290008   -5.032808

--------------------------------
INTERNAL COORDINATES (ANGSTROEM)
--------------------------------
 C      0   0   0     0.000000000000     0.00000000     0.00000000
 C      1   0   0     1.394677708533     0.00000000     0.00000000
 Cl     2   1   0     1.748377116022   121.57243552     0.00000000
 C      2   1   3     1.393070477437   121.42909293   179.44508918
 H      4   2   1     1.085714828375   119.42767692   180.01713472
 C      4   2   1     1.391217453817   119.92482938   359.49910863
 C      6   4   2     1.394754987865   119.63332244     1.06586391
 C      1   2   3     1.394842870797   117.82790409   180.06948964
 S      1   2   3     1.847429880104   124.10452758   357.42164921
 O      9   1   2     1.479223267958   102.03741913    59.54262324
 O      9   1   2     1.473889923095   101.29799725   180.16777589
 N      9   1   2     1.558810571044   107.67295806   296.67324700
 H     12   9   1     1.021342353758   106.59412214    84.95616268
 H      8   1   2     1.085472631899   117.29623997   181.17569550
 C      7   6   4     1.518993151216   120.79067988   184.67458445
 N     15   7   6     1.459678924970   113.55143945   333.19681767
 C     15   7   6     1.526980163251   111.70831694    85.86480226
 C     16  15   7     1.370249570816   115.63938147   118.38706596
 C     17  15   7     1.388480888299   110.27838749   239.47654938
 O     18  16  15     1.218099804620   126.84516785   181.33962824
 C     17  15   7     1.388065105553   128.49600483    59.78009234
 C     21  17  15     1.396793713531   117.41965847   179.39605780
 C     22  21  17     1.401049746235   121.32174042     0.30299233
 C     19  17  15     1.388362016626   121.82909136   180.27553347
 O     15   7   6     1.408841345465   107.77061024   209.34674533
 H      6   4   2     1.086823548676   119.73487424   181.39601193
 H     16  15   7     1.011755485838   121.96477220   303.76005199
 H     21  17  15     1.087188949286   121.12074855   358.30391235
 H     22  21  17     1.086204144999   119.29453713   179.59304364
 H     23  22  21     1.086273908929   119.41022265   179.52863357
 H     24  19  17     1.086218277793   120.48089714   180.42698681
 H     25  15   7     0.969551479224   107.91070234   190.23315395

---------------------------
INTERNAL COORDINATES (A.U.)
---------------------------
 C      0   0   0     0.000000000000     0.00000000     0.00000000
 C      1   0   0     2.635558914213     0.00000000     0.00000000
 Cl     2   1   0     3.303953928096   121.57243552     0.00000000
 C      2   1   3     2.632521687608   121.42909293   179.44508918
 H      4   2   1     2.051703685167   119.42767692   180.01713472
 C      4   2   1     2.629019980445   119.92482938   359.49910863
 C      6   4   2     2.635704950986   119.63332244     1.06586391
 C      1   2   3     2.635871025659   117.82790409   180.06948964
 S      1   2   3     3.491136525020   124.10452758   357.42164921
 O      9   1   2     2.795326867365   102.03741913    59.54262324
 O      9   1   2     2.785248306197   101.29799725   180.16777589
 N      9   1   2     2.945725073934   107.67295806   296.67324700
 H     12   9   1     1.930057337576   106.59412214    84.95616268
 H      8   1   2     2.051246000157   117.29623997   181.17569550
 C      7   6   4     2.870481055100   120.79067988   184.67458445
 N     15   7   6     2.758393411651   113.55143945   333.19681767
 C     15   7   6     2.885574320474   111.70831694    85.86480226
 C     16  15   7     2.589396423966   115.63938147   118.38706596
 C     17  15   7     2.623848621068   110.27838749   239.47654938
 O     18  16  15     2.301875034516   126.84516785   181.33962824
 C     17  15   7     2.623062905548   128.49600483    59.78009234
 C     21  17  15     2.639557584157   117.41965847   179.39605780
 C     22  21  17     2.647600320384   121.32174042     0.30299233
 C     19  17  15     2.623623986162   121.82909136   180.27553347
 O     15   7   6     2.662324309074   107.77061024   209.34674533
 H      6   4   2     2.053798862895   119.73487424   181.39601193
 H     16  15   7     1.911940782726   121.96477220   303.76005199
 H     21  17  15     2.054489369976   121.12074855   358.30391235
 H     22  21  17     2.052628359578   119.29453713   179.59304364
 H     23  22  21     2.052760194301   119.41022265   179.52863357
 H     24  19  17     2.052655066688   120.48089714   180.42698681
 H     25  15   7     1.832186768471   107.91070234   190.23315395

---------------------
BASIS SET INFORMATION
---------------------
There are 6 groups of distinct atoms

 Group   1 Type C   : 19s6p3d2f contracted to 5s4p3d2f pattern {88111/3111/111/11}
 Group   2 Type Cl  : 42s17p3d2f contracted to 6s5p3d2f pattern {131313111/77111/111/11}
 Group   3 Type H   : 6s3p2d contracted to 4s3p2d pattern {3111/111/11}
 Group   4 Type S   : 42s17p3d2f contracted to 6s5p3d2f pattern {131313111/77111/111/11}
 Group   5 Type O   : 19s6p3d2f contracted to 5s4p3d2f pattern {88111/3111/111/11}
 Group   6 Type N   : 19s6p3d2f contracted to 5s4p3d2f pattern {88111/3111/111/11}

Atom   0C    basis set group =>   1
Atom   1C    basis set group =>   1
Atom   2Cl   basis set group =>   2
Atom   3C    basis set group =>   1
Atom   4H    basis set group =>   3
Atom   5C    basis set group =>   1
Atom   6C    basis set group =>   1
Atom   7C    basis set group =>   1
Atom   8S    basis set group =>   4
Atom   9O    basis set group =>   5
Atom  10O    basis set group =>   5
Atom  11N    basis set group =>   6
Atom  12H    basis set group =>   3
Atom  13H    basis set group =>   3
Atom  14C    basis set group =>   1
Atom  15N    basis set group =>   6
Atom  16C    basis set group =>   1
Atom  17C    basis set group =>   1
Atom  18C    basis set group =>   1
Atom  19O    basis set group =>   5
Atom  20C    basis set group =>   1
Atom  21C    basis set group =>   1
Atom  22C    basis set group =>   1
Atom  23C    basis set group =>   1
Atom  24O    basis set group =>   5
Atom  25H    basis set group =>   3
Atom  26H    basis set group =>   3
Atom  27H    basis set group =>   3
Atom  28H    basis set group =>   3
Atom  29H    basis set group =>   3
Atom  30H    basis set group =>   3
Atom  31H    basis set group =>   3
---------------------------------
AUXILIARY/J BASIS SET INFORMATION
---------------------------------
There are 6 groups of distinct atoms

 Group   1 Type C   : 12s5p4d2f1g contracted to 6s4p3d1f1g pattern {711111/2111/211/2/1}
 Group   2 Type Cl  : 14s5p5d2f1g contracted to 8s4p3d1f1g pattern {71111111/2111/311/2/1}
 Group   3 Type H   : 5s2p1d contracted to 3s1p1d pattern {311/2/1}
 Group   4 Type S   : 14s5p5d2f1g contracted to 8s4p3d1f1g pattern {71111111/2111/311/2/1}
 Group   5 Type O   : 12s5p4d2f1g contracted to 6s4p3d1f1g pattern {711111/2111/211/2/1}
 Group   6 Type N   : 12s5p4d2f1g contracted to 6s4p3d1f1g pattern {711111/2111/211/2/1}

Atom   0C    basis set group =>   1
Atom   1C    basis set group =>   1
Atom   2Cl   basis set group =>   2
Atom   3C    basis set group =>   1
Atom   4H    basis set group =>   3
Atom   5C    basis set group =>   1
Atom   6C    basis set group =>   1
Atom   7C    basis set group =>   1
Atom   8S    basis set group =>   4
Atom   9O    basis set group =>   5
Atom  10O    basis set group =>   5
Atom  11N    basis set group =>   6
Atom  12H    basis set group =>   3
Atom  13H    basis set group =>   3
Atom  14C    basis set group =>   1
Atom  15N    basis set group =>   6
Atom  16C    basis set group =>   1
Atom  17C    basis set group =>   1
Atom  18C    basis set group =>   1
Atom  19O    basis set group =>   5
Atom  20C    basis set group =>   1
Atom  21C    basis set group =>   1
Atom  22C    basis set group =>   1
Atom  23C    basis set group =>   1
Atom  24O    basis set group =>   5
Atom  25H    basis set group =>   3
Atom  26H    basis set group =>   3
Atom  27H    basis set group =>   3
Atom  28H    basis set group =>   3
Atom  29H    basis set group =>   3
Atom  30H    basis set group =>   3
Atom  31H    basis set group =>   3
---------------------------------
AUXILIARY/C BASIS SET INFORMATION
---------------------------------
There are 6 groups of distinct atoms

 Group   1 Type C   : 9s7p6d4f2g contracted to 9s7p6d4f2g pattern {111111111/1111111/111111/1111/11}
 Group   2 Type Cl  : 11s9p8d6f3g contracted to 11s9p8d6f3g pattern {11111111111/111111111/11111111/111111/111}
 Group   3 Type H   : 5s4p3d2f contracted to 5s4p3d2f pattern {11111/1111/111/11}
 Group   4 Type S   : 11s9p8d6f3g contracted to 11s9p8d6f3g pattern {11111111111/111111111/11111111/111111/111}
 Group   5 Type O   : 9s7p6d4f2g contracted to 9s7p6d4f2g pattern {111111111/1111111/111111/1111/11}
 Group   6 Type N   : 9s7p6d4f2g contracted to 9s7p6d4f2g pattern {111111111/1111111/111111/1111/11}

Atom   0C    basis set group =>   1
Atom   1C    basis set group =>   1
Atom   2Cl   basis set group =>   2
Atom   3C    basis set group =>   1
Atom   4H    basis set group =>   3
Atom   5C    basis set group =>   1
Atom   6C    basis set group =>   1
Atom   7C    basis set group =>   1
Atom   8S    basis set group =>   4
Atom   9O    basis set group =>   5
Atom  10O    basis set group =>   5
Atom  11N    basis set group =>   6
Atom  12H    basis set group =>   3
Atom  13H    basis set group =>   3
Atom  14C    basis set group =>   1
Atom  15N    basis set group =>   6
Atom  16C    basis set group =>   1
Atom  17C    basis set group =>   1
Atom  18C    basis set group =>   1
Atom  19O    basis set group =>   5
Atom  20C    basis set group =>   1
Atom  21C    basis set group =>   1
Atom  22C    basis set group =>   1
Atom  23C    basis set group =>   1
Atom  24O    basis set group =>   5
Atom  25H    basis set group =>   3
Atom  26H    basis set group =>   3
Atom  27H    basis set group =>   3
Atom  28H    basis set group =>   3
Atom  29H    basis set group =>   3
Atom  30H    basis set group =>   3
Atom  31H    basis set group =>   3


           ************************************************************
           *        Program running with 8 parallel MPI-processes     *
           *              working on a common directory               *
           ************************************************************
------------------------------------------------------------------------------
                           ORCA GTO INTEGRAL CALCULATION
                           -- RI-GTO INTEGRALS CHOSEN --
------------------------------------------------------------------------------
------------------------------------------------------------------------------
                   ___                                                        
                  /   \      - P O W E R E D   B Y -                         
                 /     \                                                     
                 |  |  |   _    _      __       _____    __    __             
                 |  |  |  | |  | |    /  \     |  _  \  |  |  /  |          
                  \  \/   | |  | |   /    \    | | | |  |  | /  /          
                 / \  \   | |__| |  /  /\  \   | |_| |  |  |/  /          
                |  |  |   |  __  | /  /__\  \  |    /   |      \           
                |  |  |   | |  | | |   __   |  |    \   |  |\   \          
                \     /   | |  | | |  |  |  |  | |\  \  |  | \   \       
                 \___/    |_|  |_| |__|  |__|  |_| \__\ |__|  \__/        
                                                                              
                      - O R C A' S   B I G   F R I E N D -                    
                                      &                                       
                       - I N T E G R A L  F E E D E R -                       
                                                                              
 v1 FN, 2020, v2 2021                                                         
------------------------------------------------------------------------------


Reading SHARK input file A.36.avtz.SHARKINP.tmp ... ok
----------------------
SHARK INTEGRAL PACKAGE
----------------------

Number of atoms                             ...     32
Number of basis functions                   ...   1420
Number of shells                            ...    552
Maximum angular momentum                    ...      3
Integral batch strategy                     ... SHARK/LIBINT Hybrid
RI-J (if used) integral strategy            ... SPLIT-RIJ (Revised 2003 algorithm where possible)
Printlevel                                  ...      1
Contraction scheme used                     ... PARTIAL GENERAL contraction
Coulomb Range Separation                    ... NOT USED
Exchange Range Separation                   ... NOT USED
Finite Nucleus Model                        ... NOT USED
Auxiliary Coulomb fitting basis             ... AVAILABLE
   # of basis functions in Aux-J            ...   1192
   # of shells in Aux-J                     ...    384
   Maximum angular momentum in Aux-J        ...      4
Auxiliary J/K fitting basis                 ... NOT available
Auxiliary Correlation fitting basis         ... AVAILABLE
   # of basis functions in Aux-C            ...   2874
   # of shells in Aux-C                     ...    774
   Maximum angular momentum in Aux-C        ...      4
Auxiliary 'external' fitting basis          ... NOT available
Integral threshold                          ...     2.500000e-11
Primitive cut-off                           ...     2.500000e-12
Primitive pair pre-selection threshold      ...     2.500000e-12

Calculating pre-screening integrals         ... done (  0.1 sec) Dimension = 552
Calculating pre-screening integrals (ORCA)  ... done (  0.3 sec) Dimension = 402
Organizing shell pair data                  ... done (  1.1 sec)
Shell pair information
Total number of shell pairs                 ...    152628
Shell pairs after pre-screening             ...    100840
Total number of primitive shell pairs       ...    187668
Primitive shell pairs kept                  ...    114725
          la=0 lb=0:  21677 shell pairs
          la=1 lb=0:  26131 shell pairs
          la=1 lb=1:   6909 shell pairs
          la=2 lb=0:  17159 shell pairs
          la=2 lb=1:   9074 shell pairs
          la=2 lb=2:   3077 shell pairs
          la=3 lb=0:   8399 shell pairs
          la=3 lb=1:   4548 shell pairs
          la=3 lb=2:   3072 shell pairs
          la=3 lb=3:    794 shell pairs

Calculating one electron integrals          ... done (  0.2 sec)
Calculating RI/J V-Matrix + Cholesky decomp.... done (  0.1 sec)
Calculating RI/C V-Matrix + Cholesky decomp.... done (  0.4 sec)
Calculating Nuclear repulsion               ... done (  0.0 sec) ENN=   2074.391640721290 Eh

SHARK setup successfully completed in   3.4 seconds

Maximum memory used throughout the entire GTOINT-calculation: 133.4 MB


           ************************************************************
           *        Program running with 8 parallel MPI-processes     *
           *              working on a common directory               *
           ************************************************************
-------------------------------------------------------------------------------
                                 ORCA SCF
-------------------------------------------------------------------------------

------------
SCF SETTINGS
------------
Hamiltonian:
 Density Functional     Method          .... DFT(GTOs)
 Exchange Functional    Exchange        .... PBE
   PBE kappa parameter   XKappa         ....  0.804000
   PBE mue parameter    XMuePBE         ....  0.219520
 Correlation Functional Correlation     .... P86
 LDA part of GGA corr.  LDAOpt          .... VWN-5
 Gradients option       PostSCFGGA      .... off
 Hybrid DFT is turned on
   Fraction HF Exchange ScalHFX         ....  0.700000
   Scaling of DF-GGA-X  ScalDFX         ....  0.300000
   Scaling of DF-GGA-C  ScalDFC         ....  0.430000
   Scaling of DF-LDA-C  ScalLDAC        ....  0.430000
   Perturbative correction              ....  1.000000
   Density functional embedding theory  .... OFF
   NL short-range parameter             .... 14.200000
 RI-approximation to the Coulomb term is turned on
   Number of AuxJ basis functions       .... 1192
   RIJ-COSX (HFX calculated with COS-X)).... on


General Settings:
 Integral files         IntName         .... A.36.avtz
 Hartree-Fock type      HFTyp           .... RHF
 Total Charge           Charge          ....   -1
 Multiplicity           Mult            ....    1
 Number of Electrons    NEL             ....  174
 Basis Dimension        Dim             .... 1250
 Nuclear Repulsion      ENuc            ....   2074.3916407213 Eh

Convergence Acceleration:
 DIIS                   CNVDIIS         .... on
   Start iteration      DIISMaxIt       ....    12
   Startup error        DIISStart       ....  0.200000
   # of expansion vecs  DIISMaxEq       ....     5
   Bias factor          DIISBfac        ....   1.050
   Max. coefficient     DIISMaxC        ....  10.000
 Trust-Rad. Augm. Hess. CNVTRAH         .... auto
   Auto Start mean grad. ratio tolernc. ....  1.125000
   Auto Start start iteration           ....    20
   Auto Start num. interpolation iter.  ....    10
   Max. Number of Micro iterations      ....    16
   Max. Number of Macro iterations      .... Maxiter - #DIIS iter
   Number of Davidson start vectors     ....     2
   Converg. threshold I  (grad. norm)   ....   1.000e-05
   Converg. threshold II (energy diff.) ....   1.000e-08
   Grad. Scal. Fac. for Micro threshold ....   0.100
   Minimum threshold for Micro iter.    ....   0.010
   NR start threshold (gradient norm)   ....   0.001
   Initial trust radius                 ....   0.400
   Minimum AH scaling param. (alpha)    ....   1.000
   Maximum AH scaling param. (alpha)    .... 1000.000
   Orbital update algorithm             .... Taylor
   White noise on init. David. guess    .... on
   Maximum white noise                  ....   0.010
   Quad. conv. algorithm                .... NR
 SOSCF                  CNVSOSCF        .... on
   Start iteration      SOSCFMaxIt      ....   150
   Startup grad/error   SOSCFStart      ....  0.003300
 Level Shifting         CNVShift        .... on
   Level shift para.    LevelShift      ....    0.2500
   Turn off err/grad.   ShiftErr        ....    0.0010
 Zerner damping         CNVZerner       .... off
 Static damping         CNVDamp         .... on
   Fraction old density DampFac         ....    0.7000
   Max. Damping (<1)    DampMax         ....    0.9800
   Min. Damping (>=0)   DampMin         ....    0.0000
   Turn off err/grad.   DampErr         ....    0.1000
 Fernandez-Rico         CNVRico         .... off

SCF Procedure:
 Maximum # iterations   MaxIter         ....   125
 SCF integral mode      SCFMode         .... Direct
   Integral package                     .... SHARK and LIBINT hybrid scheme
 Reset frequency        DirectResetFreq ....    20
 Integral Threshold     Thresh          ....  2.500e-11 Eh
 Primitive CutOff       TCut            ....  2.500e-12 Eh

Convergence Tolerance:
 Convergence Check Mode ConvCheckMode   .... Total+1el-Energy
 Convergence forced     ConvForced      .... 0
 Energy Change          TolE            ....  1.000e-08 Eh
 1-El. energy change                    ....  1.000e-05 Eh
 Orbital Gradient       TolG            ....  1.000e-05
 Orbital Rotation angle TolX            ....  1.000e-05
 DIIS Error             TolErr          ....  5.000e-07


Diagonalization of the overlap matrix:
Smallest eigenvalue                        ... 1.890e-07
Time for diagonalization                   ...    0.210 sec
Threshold for overlap eigenvalues          ... 1.000e-08
Number of eigenvalues below threshold      ... 0
Time for construction of square roots      ...    0.143 sec
Total time needed                          ...    0.360 sec

Time for model grid setup =    0.325 sec

------------------------------
INITIAL GUESS: MODEL POTENTIAL
------------------------------
Loading Hartree-Fock densities                     ... done
Calculating cut-offs                               ... done
Initializing the effective Hamiltonian             ... done
Setting up the integral package (SHARK)            ... done
Starting the Coulomb interaction                   ... done (   1.4 sec)
Reading the grid                                   ... done
Mapping shells                                     ... done
Starting the XC term evaluation                    ... done (   1.3 sec)
  promolecular density results
     # of electrons  =    172.991583234
     EX              =   -172.651946369
     EC              =     -0.026496312
     EX+EC           =   -172.678442681
Transforming the Hamiltonian                       ... done (   0.1 sec)
Diagonalizing the Hamiltonian                      ... done (   0.2 sec)
Back transforming the eigenvectors                 ... done (   0.0 sec)
Now organizing SCF variables                       ... done
                      ------------------
                      INITIAL GUESS DONE (   3.4 sec)
                      ------------------
-------------------
DFT GRID GENERATION
-------------------

General Integration Accuracy     IntAcc      ... 4.388
Radial Grid Type                 RadialGrid  ... OptM3 with GC (2021)
Angular Grid (max. ang.)         AngularGrid ... 4 (Lebedev-302)
Angular grid pruning method      GridPruning ... 4 (adaptive)
Weight generation scheme         WeightScheme... Becke
Basis function cutoff            BFCut       ... 1.0000e-11
Integration weight cutoff        WCut        ... 1.0000e-14
Angular grids for H and He will be reduced by one unit
Partially contracted basis set               ... off
Rotationally invariant grid construction     ... off

Total number of grid points                  ...   173363
Total number of batches                      ...     2724
Average number of points per batch           ...       63
Average number of grid points per atom       ...     5418
Time for grid setup =    1.225 sec

--------------------
COSX GRID GENERATION
--------------------

GRIDX 1
-------
General Integration Accuracy     IntAcc      ... 3.816
Radial Grid Type                 RadialGrid  ... OptM3 with GC (2021)
Angular Grid (max. ang.)         AngularGrid ... 1 (Lebedev-50)
Angular grid pruning method      GridPruning ... 4 (adaptive)
Weight generation scheme         WeightScheme... Becke
Basis function cutoff            BFCut       ... 1.0000e-11
Integration weight cutoff        WCut        ... 1.0000e-14
Angular grids for H and He will be reduced by one unit
Partially contracted basis set               ... on
Rotationally invariant grid construction     ... off

Total number of grid points                  ...    21588
Total number of batches                      ...      356
Average number of points per batch           ...       60
Average number of grid points per atom       ...      675
UseSFitting                                  ... on

GRIDX 2
-------
General Integration Accuracy     IntAcc      ... 4.020
Radial Grid Type                 RadialGrid  ... OptM3 with GC (2021)
Angular Grid (max. ang.)         AngularGrid ... 2 (Lebedev-110)
Angular grid pruning method      GridPruning ... 4 (adaptive)
Weight generation scheme         WeightScheme... Becke
Basis function cutoff            BFCut       ... 1.0000e-11
Integration weight cutoff        WCut        ... 1.0000e-14
Angular grids for H and He will be reduced by one unit
Partially contracted basis set               ... on
Rotationally invariant grid construction     ... off

Total number of grid points                  ...    52841
Total number of batches                      ...      841
Average number of points per batch           ...       62
Average number of grid points per atom       ...     1651
UseSFitting                                  ... on

GRIDX 3
-------
General Integration Accuracy     IntAcc      ... 4.338
Radial Grid Type                 RadialGrid  ... OptM3 with GC (2021)
Angular Grid (max. ang.)         AngularGrid ... 3 (Lebedev-194)
Angular grid pruning method      GridPruning ... 4 (adaptive)
Weight generation scheme         WeightScheme... Becke
Basis function cutoff            BFCut       ... 1.0000e-11
Integration weight cutoff        WCut        ... 1.0000e-14
Angular grids for H and He will be reduced by one unit
Partially contracted basis set               ... on
Rotationally invariant grid construction     ... off

Total number of grid points                  ...   117221
Total number of batches                      ...     1850
Average number of points per batch           ...       63
Average number of grid points per atom       ...     3663
UseSFitting                                  ... on

Time for X-Grid setup             =    3.419 sec

 re-compute Schwartz prescreening matrix in partically contracted basis (1) ...done (   0.134 sec)
--------------
SCF ITERATIONS
--------------
ITER       Energy         Delta-E        Max-DP      RMS-DP      [F,P]     Damp
               ***  Starting incremental Fock matrix formation  ***
  0  -1803.7222583904   0.000000000000 1.51738531  0.00693477  0.3274605 0.7000
  1  -1804.0087742914  -0.286515900937 1.43567424  0.00643094  0.1770001 0.7000
                               ***Turning on DIIS***
  2  -1804.1526407210  -0.143866429629 3.48817463  0.01602887  0.0786522 0.0000
  3  -1804.3993174324  -0.246676711355 0.18760560  0.00176617  0.0799963 0.0000
  4  -1804.4324593489  -0.033141916497 0.21768398  0.00084079  0.0076029 0.0000
  5  -1804.4335236599  -0.001064311041 0.09045936  0.00042076  0.0062741 0.0000
                      *** Initiating the SOSCF procedure ***
                           *** Shutting down DIIS ***
                      *** Re-Reading the Fockian *** 
                      *** Removing any level shift *** 
ITER      Energy       Delta-E        Grad      Rot      Max-DP    RMS-DP
  6  -1804.43379660  -0.0002729440  0.000576  0.000576  0.093505  0.000283
               *** Restarting incremental Fock matrix formation ***
  7  -1804.43389595  -0.0000993487  0.000221  0.000565  1.347368  0.006358
  8  -1804.43391836  -0.0000224091  0.000194  0.000635  0.681658  0.002309
  9  -1804.43391979  -0.0000014247  0.000095  0.000100  0.499269  0.001699
 10  -1804.43392247  -0.0000026851  0.000018  0.000064  0.214374  0.000874
 11  -1804.43392289  -0.0000004181  0.000015  0.000041  0.087664  0.000358
 12  -1804.43392289   0.0000000005  0.000006  0.000011  0.095521  0.000301
 13  -1804.43392284   0.0000000488  0.000004  0.000004  0.079547  0.000343
                  ***Gradient check signals convergence***
              ***Rediagonalizing the Fockian in SOSCF/NRSCF***

               *****************************************************
               *                     SUCCESS                       *
               *           SCF CONVERGED AFTER  14 CYCLES          *
               *****************************************************

Old exchange energy                            =   -122.745297636 Eh
New exchange energy                            =   -122.745366913 Eh
Exchange energy change after final integration =     -0.000069277 Eh
Total energy after final integration           =  -1804.433992249 Eh
Final COS-X integration done in                =    82.364 sec

----------------
TOTAL SCF ENERGY
----------------

Total Energy       :        -1804.43399225 Eh          -49101.14518 eV

Components:
Nuclear Repulsion  :         2074.39164072 Eh           56447.06626 eV
Electronic Energy  :        -3878.82563297 Eh         -105548.21144 eV
One Electron Energy:        -6624.04568648 Eh         -180249.44683 eV
Two Electron Energy:         2745.22005351 Eh           74701.23539 eV
Max COSX asymmetry :            0.00007339 Eh               0.00200 eV

Virial components:
Potential Energy   :        -3604.27079430 Eh          -98077.19446 eV
Kinetic Energy     :         1799.83680205 Eh           48976.04928 eV
Virial Ratio       :            2.00255423


DFT components:
N(Alpha)           :       87.000004021896 electrons
N(Beta)            :       87.000004021896 electrons
N(Total)           :      174.000008043792 electrons
E(X)               :      -52.412532322171 Eh       
E(C)               :       -2.919566252337 Eh       
E(XC)              :      -55.332098574508 Eh       
DFET-embed. en.    :        0.000000000000 Eh       

---------------
SCF CONVERGENCE
---------------

  Last Energy change         ...   -1.3207e-07  Tolerance :   1.0000e-08
  Last MAX-Density change    ...    7.1054e-15  Tolerance :   1.0000e-07
  Last RMS-Density change    ...    3.8202e-17  Tolerance :   5.0000e-09
  Last Orbital Gradient      ...    1.4398e-06  Tolerance :   1.0000e-05
  Last Orbital Rotation      ...    3.2744e-06  Tolerance :   1.0000e-05

             **** THE GBW FILE WAS UPDATED (A.36.avtz.gbw) ****
             **** DENSITY A.36.avtz.scfp WAS UPDATED ****
             **** ENERGY FILE WAS UPDATED (A.36.avtz.en.tmp) ****
             **** THE GBW FILE WAS UPDATED (A.36.avtz.gbw) ****
             **** DENSITY A.36.avtz.scfp WAS UPDATED ****
----------------
ORBITAL ENERGIES
----------------

  NO   OCC          E(Eh)            E(eV) 
   0   2.0000    -103.501476     -2816.4184 
   1   2.0000     -90.853379     -2472.2461 
   2   2.0000     -19.965457      -543.2877 
   3   2.0000     -19.925161      -542.1912 
   4   2.0000     -19.832656      -539.6740 
   5   2.0000     -19.831508      -539.6428 
   6   2.0000     -15.050438      -409.5432 
   7   2.0000     -14.891481      -405.2178 
   8   2.0000     -10.882943      -296.1399 
   9   2.0000     -10.874757      -295.9172 
  10   2.0000     -10.801426      -293.9217 
  11   2.0000     -10.788210      -293.5621 
  12   2.0000     -10.786735      -293.5220 
  13   2.0000     -10.786385      -293.5125 
  14   2.0000     -10.784189      -293.4527 
  15   2.0000     -10.781892      -293.3902 
  16   2.0000     -10.779960      -293.3376 
  17   2.0000     -10.758766      -292.7609 
  18   2.0000     -10.753537      -292.6186 
  19   2.0000     -10.752021      -292.5774 
  20   2.0000     -10.747840      -292.4636 
  21   2.0000     -10.737606      -292.1851 
  22   2.0000     -10.049413      -273.4584 
  23   2.0000      -8.594731      -233.8745 
  24   2.0000      -7.622539      -207.4198 
  25   2.0000      -7.618129      -207.2998 
  26   2.0000      -7.617880      -207.2930 
  27   2.0000      -6.381380      -173.6462 
  28   2.0000      -6.379103      -173.5842 
  29   2.0000      -6.378150      -173.5583 
  30   2.0000      -1.206104       -32.8197 
  31   2.0000      -1.186929       -32.2980 
  32   2.0000      -1.144174       -31.1346 
  33   2.0000      -1.070172       -29.1209 
  34   2.0000      -1.027800       -27.9679 
  35   2.0000      -0.991326       -26.9753 
  36   2.0000      -0.980146       -26.6711 
  37   2.0000      -0.922375       -25.0991 
  38   2.0000      -0.886749       -24.1297 
  39   2.0000      -0.879778       -23.9400 
  40   2.0000      -0.873582       -23.7714 
  41   2.0000      -0.832048       -22.6412 
  42   2.0000      -0.829920       -22.5833 
  43   2.0000      -0.755989       -20.5715 
  44   2.0000      -0.732181       -19.9237 
  45   2.0000      -0.682231       -18.5644 
  46   2.0000      -0.676340       -18.4041 
  47   2.0000      -0.646281       -17.5862 
  48   2.0000      -0.635929       -17.3045 
  49   2.0000      -0.602956       -16.4073 
  50   2.0000      -0.571131       -15.5413 
  51   2.0000      -0.560466       -15.2511 
  52   2.0000      -0.548894       -14.9362 
  53   2.0000      -0.538705       -14.6589 
  54   2.0000      -0.519656       -14.1406 
  55   2.0000      -0.492297       -13.3961 
  56   2.0000      -0.487709       -13.2712 
  57   2.0000      -0.484980       -13.1970 
  58   2.0000      -0.483165       -13.1476 
  59   2.0000      -0.472442       -12.8558 
  60   2.0000      -0.464069       -12.6279 
  61   2.0000      -0.451561       -12.2876 
  62   2.0000      -0.440184       -11.9780 
  63   2.0000      -0.431618       -11.7449 
  64   2.0000      -0.422473       -11.4961 
  65   2.0000      -0.403017       -10.9667 
  66   2.0000      -0.400657       -10.9024 
  67   2.0000      -0.395932       -10.7739 
  68   2.0000      -0.391839       -10.6625 
  69   2.0000      -0.388191       -10.5632 
  70   2.0000      -0.372932       -10.1480 
  71   2.0000      -0.361211        -9.8290 
  72   2.0000      -0.344341        -9.3700 
  73   2.0000      -0.317996        -8.6531 
  74   2.0000      -0.311839        -8.4856 
  75   2.0000      -0.299844        -8.1592 
  76   2.0000      -0.291260        -7.9256 
  77   2.0000      -0.286262        -7.7896 
  78   2.0000      -0.266295        -7.2463 
  79   2.0000      -0.257844        -7.0163 
  80   2.0000      -0.255843        -6.9619 
  81   2.0000      -0.251574        -6.8457 
  82   2.0000      -0.240266        -6.5380 
  83   2.0000      -0.214374        -5.8334 
  84   2.0000      -0.204870        -5.5748 
  85   2.0000      -0.199818        -5.4373 
  86   2.0000      -0.166102        -4.5199 
  87   0.0000       0.070983         1.9315 
  88   0.0000       0.085504         2.3267 
  89   0.0000       0.088844         2.4176 
  90   0.0000       0.091239         2.4827 
  91   0.0000       0.096020         2.6128 
  92   0.0000       0.101953         2.7743 
  93   0.0000       0.103980         2.8294 
  94   0.0000       0.112959         3.0738 
  95   0.0000       0.117598         3.2000 
  96   0.0000       0.127156         3.4601 
  97   0.0000       0.128928         3.5083 
  98   0.0000       0.131256         3.5717 
  99   0.0000       0.136489         3.7141 
 100   0.0000       0.140645         3.8271 
 101   0.0000       0.147116         4.0032 
 102   0.0000       0.149947         4.0803 
 103   0.0000       0.151003         4.1090 
 104   0.0000       0.151674         4.1273 
 105   0.0000       0.154607         4.2071 
 106   0.0000       0.160347         4.3633 
 107   0.0000       0.162091         4.4107 
 108   0.0000       0.164531         4.4771 
 109   0.0000       0.167226         4.5504 
 110   0.0000       0.171451         4.6654 
 111   0.0000       0.173039         4.7086 
 112   0.0000       0.174485         4.7480 
 113   0.0000       0.180162         4.9025 
 114   0.0000       0.181546         4.9401 
 115   0.0000       0.184252         5.0137 
 116   0.0000       0.186148         5.0654 
 117   0.0000       0.188963         5.1419 
 118   0.0000       0.192546         5.2394 
 119   0.0000       0.195528         5.3206 
 120   0.0000       0.199901         5.4396 
 121   0.0000       0.202725         5.5164 
 122   0.0000       0.205208         5.5840 
 123   0.0000       0.209157         5.6915 
 124   0.0000       0.213111         5.7990 
 125   0.0000       0.215231         5.8567 
 126   0.0000       0.217439         5.9168 
 127   0.0000       0.220619         6.0034 
 128   0.0000       0.226958         6.1758 
 129   0.0000       0.228583         6.2201 
 130   0.0000       0.229386         6.2419 
 131   0.0000       0.231315         6.2944 
 132   0.0000       0.235176         6.3995 
 133   0.0000       0.236862         6.4453 
 134   0.0000       0.240964         6.5570 
 135   0.0000       0.246176         6.6988 
 136   0.0000       0.249309         6.7840 
 137   0.0000       0.251837         6.8528 
 138   0.0000       0.255333         6.9480 
 139   0.0000       0.255707         6.9581 
 140   0.0000       0.262308         7.1378 
 141   0.0000       0.264653         7.2016 
 142   0.0000       0.267583         7.2813 
 143   0.0000       0.269588         7.3359 
 144   0.0000       0.271826         7.3968 
 145   0.0000       0.277701         7.5566 
 146   0.0000       0.279481         7.6051 
 147   0.0000       0.284725         7.7478 
 148   0.0000       0.285899         7.7797 
 149   0.0000       0.287960         7.8358 
 150   0.0000       0.290828         7.9138 
 151   0.0000       0.293183         7.9779 
 152   0.0000       0.296251         8.0614 
 153   0.0000       0.299294         8.1442 
 154   0.0000       0.303960         8.2712 
 155   0.0000       0.304580         8.2880 
 156   0.0000       0.306494         8.3401 
 157   0.0000       0.310418         8.4469 
 158   0.0000       0.311616         8.4795 
 159   0.0000       0.314930         8.5697 
 160   0.0000       0.316573         8.6144 
 161   0.0000       0.320556         8.7228 
 162   0.0000       0.324412         8.8277 
 163   0.0000       0.325453         8.8560 
 164   0.0000       0.327959         8.9242 
 165   0.0000       0.328619         8.9422 
 166   0.0000       0.331949         9.0328 
 167   0.0000       0.337841         9.1931 
 168   0.0000       0.338575         9.2131 
 169   0.0000       0.341781         9.3003 
 170   0.0000       0.343172         9.3382 
 171   0.0000       0.346441         9.4272 
 172   0.0000       0.349797         9.5185 
 173   0.0000       0.351034         9.5521 
 174   0.0000       0.354744         9.6531 
 175   0.0000       0.357702         9.7336 
 176   0.0000       0.360192         9.8013 
 177   0.0000       0.361280         9.8309 
 178   0.0000       0.363774         9.8988 
 179   0.0000       0.365591         9.9482 
 180   0.0000       0.366912         9.9842 
 181   0.0000       0.368616        10.0305 
 182   0.0000       0.370567        10.0837 
 183   0.0000       0.372878        10.1465 
 184   0.0000       0.376840        10.2543 
 185   0.0000       0.378662        10.3039 
 186   0.0000       0.383094        10.4245 
 187   0.0000       0.384506        10.4629 
 188   0.0000       0.389033        10.5861 
 189   0.0000       0.389885        10.6093 
 190   0.0000       0.392628        10.6839 
 191   0.0000       0.396947        10.8015 
 192   0.0000       0.399533        10.8719 
 193   0.0000       0.402630        10.9561 
 194   0.0000       0.404677        11.0118 
 195   0.0000       0.407473        11.0879 
 196   0.0000       0.409316        11.1381 
 197   0.0000       0.411591        11.2000 
 198   0.0000       0.415127        11.2962 
 199   0.0000       0.416839        11.3428 
 200   0.0000       0.419635        11.4188 
 201   0.0000       0.425476        11.5778 
 202   0.0000       0.427601        11.6356 
 203   0.0000       0.429373        11.6838 
 204   0.0000       0.431359        11.7379 
 205   0.0000       0.434658        11.8276 
 206   0.0000       0.438493        11.9320 
 207   0.0000       0.442166        12.0319 
 208   0.0000       0.446560        12.1515 
 209   0.0000       0.449933        12.2433 
 210   0.0000       0.452871        12.3232 
 211   0.0000       0.454156        12.3582 
 212   0.0000       0.456381        12.4188 
 213   0.0000       0.461007        12.5446 
 214   0.0000       0.467155        12.7119 
 215   0.0000       0.467942        12.7333 
 216   0.0000       0.473928        12.8962 
 217   0.0000       0.475655        12.9432 
 218   0.0000       0.479051        13.0356 
 219   0.0000       0.480374        13.0717 
 220   0.0000       0.486090        13.2272 
 221   0.0000       0.486744        13.2450 
 222   0.0000       0.489259        13.3134 
 223   0.0000       0.492310        13.3964 
 224   0.0000       0.494309        13.4508 
 225   0.0000       0.496019        13.4974 
 226   0.0000       0.502950        13.6860 
 227   0.0000       0.505746        13.7620 
 228   0.0000       0.506989        13.7959 
 229   0.0000       0.510916        13.9027 
 230   0.0000       0.514102        13.9894 
 231   0.0000       0.517091        14.0708 
 232   0.0000       0.519122        14.1260 
 233   0.0000       0.523983        14.2583 
 234   0.0000       0.524423        14.2703 
 235   0.0000       0.529144        14.3987 
 236   0.0000       0.529464        14.4075 
 237   0.0000       0.534245        14.5376 
 238   0.0000       0.535211        14.5638 
 239   0.0000       0.536390        14.5959 
 240   0.0000       0.538201        14.6452 
 241   0.0000       0.541246        14.7280 
 242   0.0000       0.543236        14.7822 
 243   0.0000       0.548872        14.9356 
 244   0.0000       0.550386        14.9768 
 245   0.0000       0.552064        15.0224 
 246   0.0000       0.556187        15.1346 
 247   0.0000       0.558073        15.1859 
 248   0.0000       0.558788        15.2054 
 249   0.0000       0.563570        15.3355 
 250   0.0000       0.565075        15.3765 
 251   0.0000       0.566550        15.4166 
 252   0.0000       0.570577        15.5262 
 253   0.0000       0.570994        15.5375 
 254   0.0000       0.575023        15.6472 
 255   0.0000       0.575959        15.6726 
 256   0.0000       0.580184        15.7876 
 257   0.0000       0.584782        15.9127 
 258   0.0000       0.587163        15.9775 
 259   0.0000       0.589509        16.0413 
 260   0.0000       0.592067        16.1110 
 261   0.0000       0.596139        16.2218 
 262   0.0000       0.597746        16.2655 
 263   0.0000       0.599995        16.3267 
 264   0.0000       0.605505        16.4766 
 265   0.0000       0.607751        16.5378 
 266   0.0000       0.609375        16.5819 
 267   0.0000       0.611439        16.6381 
 268   0.0000       0.617365        16.7994 
 269   0.0000       0.621178        16.9031 
 270   0.0000       0.623203        16.9582 
 271   0.0000       0.625997        17.0342 
 272   0.0000       0.626838        17.0571 
 273   0.0000       0.631520        17.1845 
 274   0.0000       0.635956        17.3053 
 275   0.0000       0.637340        17.3429 
 276   0.0000       0.638956        17.3869 
 277   0.0000       0.643034        17.4979 
 278   0.0000       0.646004        17.5787 
 279   0.0000       0.649511        17.6741 
 280   0.0000       0.651187        17.7197 
 281   0.0000       0.658181        17.9100 
 282   0.0000       0.661982        18.0134 
 283   0.0000       0.665914        18.1204 
 284   0.0000       0.669960        18.2305 
 285   0.0000       0.671589        18.2749 
 286   0.0000       0.675858        18.3910 
 287   0.0000       0.680483        18.5169 
 288   0.0000       0.685016        18.6402 
 289   0.0000       0.685783        18.6611 
 290   0.0000       0.690780        18.7971 
 291   0.0000       0.693517        18.8716 
 292   0.0000       0.695115        18.9150 
 293   0.0000       0.699341        19.0300 
 294   0.0000       0.703604        19.1460 
 295   0.0000       0.705434        19.1958 
 296   0.0000       0.709352        19.3025 
 297   0.0000       0.713431        19.4134 
 298   0.0000       0.717329        19.5195 
 299   0.0000       0.722324        19.6554 
 300   0.0000       0.724464        19.7137 
 301   0.0000       0.729436        19.8490 
 302   0.0000       0.732448        19.9309 
 303   0.0000       0.736758        20.0482 
 304   0.0000       0.737566        20.0702 
 305   0.0000       0.745027        20.2732 
 306   0.0000       0.750587        20.4245 
 307   0.0000       0.753262        20.4973 
 308   0.0000       0.755773        20.5656 
 309   0.0000       0.757832        20.6217 
 310   0.0000       0.759571        20.6690 
 311   0.0000       0.765791        20.8382 
 312   0.0000       0.769216        20.9314 
 313   0.0000       0.773130        21.0379 
 314   0.0000       0.775042        21.0900 
 315   0.0000       0.778867        21.1940 
 316   0.0000       0.783547        21.3214 
 317   0.0000       0.786921        21.4132 
 318   0.0000       0.791834        21.5469 
 319   0.0000       0.792680        21.5699 
 320   0.0000       0.796590        21.6763 
 321   0.0000       0.799876        21.7657 
 322   0.0000       0.803540        21.8654 
 323   0.0000       0.810312        22.0497 
 324   0.0000       0.813988        22.1497 
 325   0.0000       0.818550        22.2739 
 326   0.0000       0.820940        22.3389 
 327   0.0000       0.827282        22.5115 
 328   0.0000       0.830276        22.5930 
 329   0.0000       0.836150        22.7528 
 330   0.0000       0.839145        22.8343 
 331   0.0000       0.840899        22.8820 
 332   0.0000       0.845971        23.0200 
 333   0.0000       0.847706        23.0672 
 334   0.0000       0.851123        23.1602 
 335   0.0000       0.855074        23.2677 
 336   0.0000       0.859921        23.3996 
 337   0.0000       0.865944        23.5635 
 338   0.0000       0.868826        23.6420 
 339   0.0000       0.870063        23.6756 
 340   0.0000       0.875773        23.8310 
 341   0.0000       0.880707        23.9653 
 342   0.0000       0.882759        24.0211 
 343   0.0000       0.884607        24.0714 
 344   0.0000       0.889105        24.1938 
 345   0.0000       0.891588        24.2613 
 346   0.0000       0.895186        24.3592 
 347   0.0000       0.901287        24.5253 
 348   0.0000       0.902443        24.5567 
 349   0.0000       0.906623        24.6705 
 350   0.0000       0.910143        24.7662 
 351   0.0000       0.915489        24.9117 
 352   0.0000       0.917338        24.9620 
 353   0.0000       0.920887        25.0586 
 354   0.0000       0.922349        25.0984 
 355   0.0000       0.923510        25.1300 
 356   0.0000       0.928389        25.2627 
 357   0.0000       0.930646        25.3242 
 358   0.0000       0.934023        25.4161 
 359   0.0000       0.938977        25.5509 
 360   0.0000       0.942890        25.6573 
 361   0.0000       0.943459        25.6728 
 362   0.0000       0.949175        25.8284 
 363   0.0000       0.952155        25.9095 
 364   0.0000       0.953956        25.9585 
 365   0.0000       0.955254        25.9938 
 366   0.0000       0.965614        26.2757 
 367   0.0000       0.966431        26.2979 
 368   0.0000       0.970334        26.4041 
 369   0.0000       0.974042        26.5050 
 370   0.0000       0.976174        26.5631 
 371   0.0000       0.980004        26.6673 
 372   0.0000       0.981957        26.7204 
 373   0.0000       0.983584        26.7647 
 374   0.0000       0.988162        26.8892 
 375   0.0000       0.992539        27.0084 
 376   0.0000       0.996702        27.1216 
 377   0.0000       1.001298        27.2467 
 378   0.0000       1.005291        27.3554 
 379   0.0000       1.006893        27.3989 
 380   0.0000       1.012151        27.5420 
 381   0.0000       1.017419        27.6854 
 382   0.0000       1.018388        27.7117 
 383   0.0000       1.022335        27.8192 
 384   0.0000       1.024616        27.8812 
 385   0.0000       1.028782        27.9946 
 386   0.0000       1.031980        28.0816 
 387   0.0000       1.037703        28.2373 
 388   0.0000       1.040067        28.3017 
 389   0.0000       1.043224        28.3876 
 390   0.0000       1.044545        28.4235 
 391   0.0000       1.047718        28.5099 
 392   0.0000       1.049636        28.5620 
 393   0.0000       1.054325        28.6896 
 394   0.0000       1.057682        28.7810 
 395   0.0000       1.061651        28.8890 
 396   0.0000       1.063119        28.9289 
 397   0.0000       1.065113        28.9832 
 398   0.0000       1.069742        29.1092 
 399   0.0000       1.074475        29.2379 
 400   0.0000       1.078010        29.3341 
 401   0.0000       1.084823        29.5195 
 402   0.0000       1.085422        29.5358 
 403   0.0000       1.086794        29.5732 
 404   0.0000       1.090042        29.6616 
 405   0.0000       1.092390        29.7254 
 406   0.0000       1.094946        29.7950 
 407   0.0000       1.097198        29.8563 
 408   0.0000       1.099079        29.9075 
 409   0.0000       1.107436        30.1349 
 410   0.0000       1.110984        30.2314 
 411   0.0000       1.115490        30.3540 
 412   0.0000       1.119725        30.4693 
 413   0.0000       1.120416        30.4881 
 414   0.0000       1.124714        30.6050 
 415   0.0000       1.125899        30.6373 
 416   0.0000       1.127098        30.6699 
 417   0.0000       1.131664        30.7941 
 418   0.0000       1.134105        30.8606 
 419   0.0000       1.138143        30.9704 
 420   0.0000       1.139682        31.0123 
 421   0.0000       1.146605        31.2007 
 422   0.0000       1.150916        31.3180 
 423   0.0000       1.152180        31.3524 
 424   0.0000       1.154994        31.4290 
 425   0.0000       1.160924        31.5904 
 426   0.0000       1.163595        31.6630 
 427   0.0000       1.169076        31.8122 
 428   0.0000       1.170229        31.8436 
 429   0.0000       1.174118        31.9494 
 430   0.0000       1.175438        31.9853 
 431   0.0000       1.179795        32.1039 
 432   0.0000       1.180300        32.1176 
 433   0.0000       1.185626        32.2625 
 434   0.0000       1.187549        32.3148 
 435   0.0000       1.191102        32.4115 
 436   0.0000       1.194490        32.5037 
 437   0.0000       1.195897        32.5420 
 438   0.0000       1.197249        32.5788 
 439   0.0000       1.199015        32.6269 
 440   0.0000       1.200238        32.6601 
 441   0.0000       1.202058        32.7097 
 442   0.0000       1.210618        32.9426 
 443   0.0000       1.212673        32.9985 
 444   0.0000       1.217355        33.1259 
 445   0.0000       1.222896        33.2767 
 446   0.0000       1.224842        33.3296 
 447   0.0000       1.227629        33.4055 
 448   0.0000       1.230338        33.4792 
 449   0.0000       1.232983        33.5512 
 450   0.0000       1.236757        33.6539 
 451   0.0000       1.240409        33.7532 
 452   0.0000       1.243482        33.8369 
 453   0.0000       1.246554        33.9205 
 454   0.0000       1.248124        33.9632 
 455   0.0000       1.252352        34.0782 
 456   0.0000       1.262350        34.3503 
 457   0.0000       1.264491        34.4086 
 458   0.0000       1.268191        34.5092 
 459   0.0000       1.269902        34.5558 
 460   0.0000       1.274826        34.6898 
 461   0.0000       1.280337        34.8397 
 462   0.0000       1.282170        34.8896 
 463   0.0000       1.285650        34.9843 
 464   0.0000       1.290555        35.1178 
 465   0.0000       1.293997        35.2115 
 466   0.0000       1.297039        35.2942 
 467   0.0000       1.298603        35.3368 
 468   0.0000       1.303874        35.4802 
 469   0.0000       1.304657        35.5015 
 470   0.0000       1.312371        35.7114 
 471   0.0000       1.314325        35.7646 
 472   0.0000       1.315528        35.7973 
 473   0.0000       1.319790        35.9133 
 474   0.0000       1.324803        36.0497 
 475   0.0000       1.331233        36.2247 
 476   0.0000       1.333984        36.2996 
 477   0.0000       1.339306        36.4444 
 478   0.0000       1.343914        36.5697 
 479   0.0000       1.350762        36.7561 
 480   0.0000       1.352767        36.8107 
 481   0.0000       1.356040        36.8997 
 482   0.0000       1.361387        37.0452 
 483   0.0000       1.364900        37.1408 
 484   0.0000       1.367635        37.2152 
 485   0.0000       1.374260        37.3955 
 486   0.0000       1.376927        37.4681 
 487   0.0000       1.382784        37.6275 
 488   0.0000       1.389835        37.8193 
 489   0.0000       1.390552        37.8388 
 490   0.0000       1.394344        37.9420 
 491   0.0000       1.397570        38.0298 
 492   0.0000       1.403443        38.1896 
 493   0.0000       1.411478        38.4083 
 494   0.0000       1.415495        38.5176 
 495   0.0000       1.422295        38.7026 
 496   0.0000       1.427051        38.8320 
 497   0.0000       1.430292        38.9202 
 498   0.0000       1.433043        38.9951 
 499   0.0000       1.436932        39.1009 
 500   0.0000       1.439907        39.1819 
 501   0.0000       1.443693        39.2849 
 502   0.0000       1.449182        39.4343 
 503   0.0000       1.451550        39.4987 
 504   0.0000       1.456131        39.6234 
 505   0.0000       1.459023        39.7020 
 506   0.0000       1.464165        39.8420 
 507   0.0000       1.467259        39.9261 
 508   0.0000       1.470213        40.0065 
 509   0.0000       1.472987        40.0820 
 510   0.0000       1.478769        40.2394 
 511   0.0000       1.483147        40.3585 
 512   0.0000       1.487470        40.4761 
 513   0.0000       1.488747        40.5109 
 514   0.0000       1.496287        40.7160 
 515   0.0000       1.501297        40.8524 
 516   0.0000       1.504198        40.9313 
 517   0.0000       1.511202        41.1219 
 518   0.0000       1.513559        41.1860 
 519   0.0000       1.515834        41.2479 
 520   0.0000       1.524470        41.4829 
 521   0.0000       1.528053        41.5804 
 522   0.0000       1.532226        41.6940 
 523   0.0000       1.539018        41.8788 
 524   0.0000       1.543092        41.9897 
 525   0.0000       1.546723        42.0885 
 526   0.0000       1.548151        42.1273 
 527   0.0000       1.550830        42.2002 
 528   0.0000       1.558227        42.4015 
 529   0.0000       1.561721        42.4966 
 530   0.0000       1.565402        42.5968 
 531   0.0000       1.569100        42.6974 
 532   0.0000       1.575652        42.8757 
 533   0.0000       1.577595        42.9285 
 534   0.0000       1.581891        43.0454 
 535   0.0000       1.587106        43.1874 
 536   0.0000       1.591881        43.3173 
 537   0.0000       1.596249        43.4361 
 538   0.0000       1.601682        43.5840 
 539   0.0000       1.608188        43.7610 
 540   0.0000       1.612733        43.8847 
 541   0.0000       1.614086        43.9215 
 542   0.0000       1.622704        44.1560 
 543   0.0000       1.623513        44.1780 
 544   0.0000       1.627923        44.2980 
 545   0.0000       1.628895        44.3245 
 546   0.0000       1.632104        44.4118 
 547   0.0000       1.636062        44.5195 
 548   0.0000       1.638650        44.5899 
 549   0.0000       1.643858        44.7317 
 550   0.0000       1.655318        45.0435 
 551   0.0000       1.657928        45.1145 
 552   0.0000       1.669260        45.4229 
 553   0.0000       1.674000        45.5519 
 554   0.0000       1.677172        45.6382 
 555   0.0000       1.685510        45.8650 
 556   0.0000       1.690473        46.0001 
 557   0.0000       1.693828        46.0914 
 558   0.0000       1.695703        46.1424 
 559   0.0000       1.700157        46.2636 
 560   0.0000       1.704080        46.3704 
 561   0.0000       1.707158        46.4541 
 562   0.0000       1.709597        46.5205 
 563   0.0000       1.712756        46.6065 
 564   0.0000       1.720405        46.8146 
 565   0.0000       1.732382        47.1405 
 566   0.0000       1.734591        47.2006 
 567   0.0000       1.739554        47.3357 
 568   0.0000       1.742436        47.4141 
 569   0.0000       1.745537        47.4985 
 570   0.0000       1.750595        47.6361 
 571   0.0000       1.759157        47.8691 
 572   0.0000       1.765124        48.0315 
 573   0.0000       1.769157        48.1412 
 574   0.0000       1.771230        48.1976 
 575   0.0000       1.778110        48.3848 
 576   0.0000       1.783663        48.5359 
 577   0.0000       1.784500        48.5587 
 578   0.0000       1.788471        48.6668 
 579   0.0000       1.794537        48.8318 
 580   0.0000       1.802589        49.0510 
 581   0.0000       1.803581        49.0779 
 582   0.0000       1.817845        49.4661 
 583   0.0000       1.827960        49.7413 
 584   0.0000       1.831322        49.8328 
 585   0.0000       1.834629        49.9228 
 586   0.0000       1.836698        49.9791 
 587   0.0000       1.842966        50.1496 
 588   0.0000       1.846353        50.2418 
 589   0.0000       1.851651        50.3860 
 590   0.0000       1.855666        50.4953 
 591   0.0000       1.861237        50.6468 
 592   0.0000       1.864354        50.7317 
 593   0.0000       1.869053        50.8595 
 594   0.0000       1.872986        50.9665 
 595   0.0000       1.880279        51.1650 
 596   0.0000       1.882587        51.2278 
 597   0.0000       1.885654        51.3113 
 598   0.0000       1.890736        51.4495 
 599   0.0000       1.897699        51.6390 
 600   0.0000       1.905069        51.8396 
 601   0.0000       1.909234        51.9529 
 602   0.0000       1.913476        52.0683 
 603   0.0000       1.920776        52.2670 
 604   0.0000       1.921485        52.2863 
 605   0.0000       1.923137        52.3312 
 606   0.0000       1.931947        52.5710 
 607   0.0000       1.938315        52.7442 
 608   0.0000       1.947645        52.9981 
 609   0.0000       1.950920        53.0872 
 610   0.0000       1.953698        53.1628 
 611   0.0000       1.960653        53.3521 
 612   0.0000       1.963465        53.4286 
 613   0.0000       1.965342        53.4797 
 614   0.0000       1.974739        53.7354 
 615   0.0000       1.981138        53.9095 
 616   0.0000       1.989569        54.1389 
 617   0.0000       1.994087        54.2619 
 618   0.0000       1.998355        54.3780 
 619   0.0000       2.002077        54.4793 
 620   0.0000       2.013693        54.7954 
 621   0.0000       2.019126        54.9432 
 622   0.0000       2.025743        55.1233 
 623   0.0000       2.027455        55.1699 
 624   0.0000       2.029203        55.2174 
 625   0.0000       2.038014        55.4572 
 626   0.0000       2.043501        55.6065 
 627   0.0000       2.049180        55.7610 
 628   0.0000       2.052872        55.8615 
 629   0.0000       2.057532        55.9883 
 630   0.0000       2.060026        56.0562 
 631   0.0000       2.070475        56.3405 
 632   0.0000       2.073040        56.4103 
 633   0.0000       2.077696        56.5370 
 634   0.0000       2.079902        56.5970 
 635   0.0000       2.083678        56.6997 
 636   0.0000       2.089018        56.8451 
 637   0.0000       2.096185        57.0401 
 638   0.0000       2.101395        57.1819 
 639   0.0000       2.106536        57.3218 
 640   0.0000       2.110594        57.4322 
 641   0.0000       2.117070        57.6084 
 642   0.0000       2.121182        57.7203 
 643   0.0000       2.126220        57.8574 
 644   0.0000       2.129822        57.9554 
 645   0.0000       2.134197        58.0744 
 646   0.0000       2.137607        58.1672 
 647   0.0000       2.146898        58.4201 
 648   0.0000       2.154259        58.6204 
 649   0.0000       2.156814        58.6899 
 650   0.0000       2.159260        58.7565 
 651   0.0000       2.161716        58.8233 
 652   0.0000       2.168579        59.0100 
 653   0.0000       2.170349        59.0582 
 654   0.0000       2.179816        59.3158 
 655   0.0000       2.187854        59.5345 
 656   0.0000       2.194078        59.7039 
 657   0.0000       2.198378        59.8209 
 658   0.0000       2.205711        60.0205 
 659   0.0000       2.207203        60.0611 
 660   0.0000       2.211380        60.1747 
 661   0.0000       2.215627        60.2903 
 662   0.0000       2.221746        60.4568 
 663   0.0000       2.228467        60.6397 
 664   0.0000       2.231513        60.7226 
 665   0.0000       2.238418        60.9105 
 666   0.0000       2.240208        60.9592 
 667   0.0000       2.251045        61.2540 
 668   0.0000       2.256040        61.3900 
 669   0.0000       2.261219        61.5309 
 670   0.0000       2.262941        61.5778 
 671   0.0000       2.266087        61.6634 
 672   0.0000       2.271601        61.8134 
 673   0.0000       2.283169        62.1282 
 674   0.0000       2.289104        62.2897 
 675   0.0000       2.292885        62.3926 
 676   0.0000       2.300126        62.5896 
 677   0.0000       2.304933        62.7204 
 678   0.0000       2.309187        62.8362 
 679   0.0000       2.316092        63.0241 
 680   0.0000       2.320691        63.1492 
 681   0.0000       2.332944        63.4826 
 682   0.0000       2.336845        63.5888 
 683   0.0000       2.346184        63.8429 
 684   0.0000       2.349335        63.9287 
 685   0.0000       2.356817        64.1323 
 686   0.0000       2.363831        64.3231 
 687   0.0000       2.367876        64.4332 
 688   0.0000       2.371621        64.5351 
 689   0.0000       2.379248        64.7426 
 690   0.0000       2.387799        64.9753 
 691   0.0000       2.398265        65.2601 
 692   0.0000       2.404863        65.4397 
 693   0.0000       2.405518        65.4575 
 694   0.0000       2.420236        65.8580 
 695   0.0000       2.423327        65.9421 
 696   0.0000       2.426477        66.0278 
 697   0.0000       2.429360        66.1062 
 698   0.0000       2.432285        66.1858 
 699   0.0000       2.434008        66.2327 
 700   0.0000       2.442628        66.4673 
 701   0.0000       2.453899        66.7740 
 702   0.0000       2.460447        66.9522 
 703   0.0000       2.466202        67.1088 
 704   0.0000       2.471501        67.2530 
 705   0.0000       2.476443        67.3874 
 706   0.0000       2.485070        67.6222 
 707   0.0000       2.491551        67.7986 
 708   0.0000       2.493953        67.8639 
 709   0.0000       2.502333        68.0920 
 710   0.0000       2.509473        68.2862 
 711   0.0000       2.516334        68.4729 
 712   0.0000       2.518432        68.5300 
 713   0.0000       2.522363        68.6370 
 714   0.0000       2.525309        68.7172 
 715   0.0000       2.534627        68.9707 
[...]
      dxz     :     0.086822
      dyz     :     0.250207
      dx2y2   :     0.097753
      dxy     :     0.093093
      f0      :     0.078762  f :     0.330769
      f+1     :     0.041062
      f-1     :     0.059098
      f+2     :     0.059984
      f-2     :     0.022708
      f+3     :     0.034864
      f-3     :     0.034291
 21 C s       :     2.484943  s :     2.484943
      pz      :     0.844674  p :     2.264989
      px      :     0.602710
      py      :     0.817604
      dz2     :     0.245779  d :     0.698631
      dxz     :     0.134475
      dyz     :     0.173523
      dx2y2   :     0.094284
      dxy     :     0.050571
      f0      :     0.093893  f :     0.334992
      f+1     :     0.039093
      f-1     :     0.066930
      f+2     :     0.054278
      f-2     :     0.051689
      f+3     :     0.012521
      f-3     :     0.016589
 22 C s       :     2.485177  s :     2.485177
      pz      :     0.822777  p :     2.281351
      px      :     0.620448
      py      :     0.838126
      dz2     :     0.164641  d :     0.697763
      dxz     :     0.059493
      dyz     :     0.225882
      dx2y2   :     0.127030
      dxy     :     0.120718
      f0      :     0.070727  f :     0.332887
      f+1     :     0.025489
      f-1     :     0.058529
      f+2     :     0.067374
      f-2     :     0.037947
      f+3     :     0.040281
      f-3     :     0.032540
 23 C s       :     2.480720  s :     2.480720
      pz      :     0.829993  p :     2.262743
      px      :     0.597108
      py      :     0.835642
      dz2     :     0.140659  d :     0.687552
      dxz     :     0.085408
      dyz     :     0.255094
      dx2y2   :     0.103467
      dxy     :     0.102924
      f0      :     0.077892  f :     0.334156
      f+1     :     0.043775
      f-1     :     0.063089
      f+2     :     0.058144
      f-2     :     0.022346
      f+3     :     0.035313
      f-3     :     0.033598
 24 O s       :     2.969555  s :     2.969555
      pz      :     1.299036  p :     3.828254
      px      :     1.145062
      py      :     1.384156
      dz2     :     0.058649  d :     0.261720
      dxz     :     0.068947
      dyz     :     0.038953
      dx2y2   :     0.062819
      dxy     :     0.032352
      f0      :     0.011378  f :     0.067797
      f+1     :     0.015575
      f-1     :     0.005021
      f+2     :     0.014316
      f-2     :     0.009706
      f+3     :     0.006466
      f-3     :     0.005336
 25 H s       :     0.647883  s :     0.647883
      pz      :     0.110286  p :     0.309791
      px      :     0.090901
      py      :     0.108605
      dz2     :     0.050148  d :     0.224950
      dxz     :     0.040920
      dyz     :     0.049877
      dx2y2   :     0.042619
      dxy     :     0.041386
 26 H s       :     0.586593  s :     0.586593
      pz      :     0.113752  p :     0.374390
      px      :     0.119124
      py      :     0.141514
      dz2     :     0.064233  d :     0.275871
      dxz     :     0.035775
      dyz     :     0.064701
      dx2y2   :     0.050692
      dxy     :     0.060470
 27 H s       :     0.647392  s :     0.647392
      pz      :     0.119295  p :     0.293074
      px      :     0.081599
      py      :     0.092181
      dz2     :     0.068895  d :     0.213138
      dxz     :     0.041069
      dyz     :     0.045781
      dx2y2   :     0.031300
      dxy     :     0.026093
 28 H s       :     0.668264  s :     0.668264
      pz      :     0.077641  p :     0.297456
      px      :     0.084134
      py      :     0.135681
      dz2     :     0.019808  d :     0.211864
      dxz     :     0.007719
      dyz     :     0.076463
      dx2y2   :     0.050918
      dxy     :     0.056955
 29 H s       :     0.671631  s :     0.671631
      pz      :     0.128022  p :     0.301335
      px      :     0.086359
      py      :     0.086954
      dz2     :     0.067719  d :     0.212711
      dxz     :     0.052022
      dyz     :     0.060998
      dx2y2   :     0.018327
      dxy     :     0.013645
 30 H s       :     0.663158  s :     0.663158
      pz      :     0.111101  p :     0.293926
      px      :     0.083202
      py      :     0.099623
      dz2     :     0.068493  d :     0.209796
      dxz     :     0.037449
      dyz     :     0.043623
      dx2y2   :     0.032457
      dxy     :     0.027775
 31 H s       :     0.566776  s :     0.566776
      pz      :     0.170137  p :     0.513076
      px      :     0.197742
      py      :     0.145197
      dz2     :     0.055797  d :     0.370623
      dxz     :     0.113640
      dyz     :     0.034463
      dx2y2   :     0.076880
      dxy     :     0.089843


                      *****************************
                      * MAYER POPULATION ANALYSIS *
                      *****************************

  NA   - Mulliken gross atomic population
  ZA   - Total nuclear charge
  QA   - Mulliken gross atomic charge
  VA   - Mayer's total valence
  BVA  - Mayer's bonded valence
  FA   - Mayer's free valence

  ATOM       NA         ZA         QA         VA         BVA        FA
  0 C      6.5422     6.0000    -0.5422     5.3383     5.3383     0.0000
  1 C      5.0453     6.0000     0.9547     2.5533     2.5533    -0.0000
  2 Cl    17.5496    17.0000    -0.5496     0.4385     0.4385     0.0000
  3 C      7.0133     6.0000    -1.0133     2.4777     2.4777    -0.0000
  4 H      0.6318     1.0000     0.3682     0.9741     0.9741     0.0000
  5 C      6.2860     6.0000    -0.2860     2.0103     2.0103    -0.0000
  6 C      4.6992     6.0000     1.3008     0.8041     0.8041     0.0000
  7 C      6.7802     6.0000    -0.7802     2.2464     2.2464     0.0000
  8 S     13.8821    16.0000     2.1179     4.6323     4.6323     0.0000
  9 O      9.0409     8.0000    -1.0409     1.3355     1.3355     0.0000
 10 O      9.0051     8.0000    -1.0051     1.3000     1.3000     0.0000
 11 N      8.1432     7.0000    -1.1432     2.4122     2.4122     0.0000
 12 H      0.8699     1.0000     0.1301     1.0740     1.0740    -0.0000
 13 H      0.7533     1.0000     0.2467     1.0475     1.0475     0.0000
 14 C      5.3161     6.0000     0.6839     3.4466     3.4466    -0.0000
 15 N      6.9153     7.0000     0.0847     2.4074     2.4074     0.0000
 16 C      5.0822     6.0000     0.9178     2.0231     2.0231     0.0000
 17 C      5.4109     6.0000     0.5891     1.7671     1.7671    -0.0000
 18 C      5.1232     6.0000     0.8768     1.3727     1.3727     0.0000
 19 O      9.0433     8.0000    -1.0433     1.0471     1.0471    -0.0000
 20 C      7.2145     6.0000    -1.2145     2.3970     2.3970     0.0000
 21 C      6.5886     6.0000    -0.5886     2.9780     2.9780     0.0000
 22 C      6.4251     6.0000    -0.4251     2.6668     2.6668     0.0000
 23 C      6.9766     6.0000    -0.9766     3.0391     3.0391     0.0000
 24 O      8.8372     8.0000    -0.8372     1.3230     1.3230    -0.0000
 25 H      0.6210     1.0000     0.3790     0.7856     0.7856     0.0000
 26 H      1.0149     1.0000    -0.0149     1.1543     1.1543    -0.0000
 27 H      0.5722     1.0000     0.4278     0.8446     0.8446     0.0000
 28 H      0.5467     1.0000     0.4533     0.7465     0.7465    -0.0000
 29 H      0.2644     1.0000     0.7356     0.1443     0.1443     0.0000
 30 H      0.9518     1.0000     0.0482     1.4333     1.4333    -0.0000
 31 H      0.8538     1.0000     0.1462     1.1011     1.1011     0.0000

  Mayer bond orders larger than 0.100000
B(  0-C ,  1-C ) :   1.5880 B(  0-C ,  2-Cl) :   0.8682 B(  0-C ,  3-C ) :   0.1290 
B(  0-C ,  5-C ) :  -0.1247 B(  0-C ,  6-C ) :   0.1573 B(  0-C ,  7-C ) :   1.3749 
B(  0-C ,  8-S ) :   0.6646 B(  0-C ,  9-O ) :   0.2812 B(  0-C , 10-O ) :   0.1970 
B(  0-C , 11-N ) :   0.1364 B(  0-C , 23-C ) :   0.1622 B(  1-C ,  2-Cl) :  -0.3178 
B(  1-C ,  3-C ) :   1.2199 B(  1-C ,  5-C ) :   0.2516 B(  1-C ,  6-C ) :  -0.1394 
B(  1-C ,  8-S ) :   0.1966 B(  1-C ,  9-O ) :  -0.1431 B(  1-C , 14-C ) :   0.1798 
B(  1-C , 16-C ) :  -0.1051 B(  1-C , 23-C ) :  -0.1094 B(  2-Cl,  5-C ) :  -0.1475 
B(  3-C ,  4-H ) :   0.8908 B(  3-C ,  5-C ) :   0.8089 B(  3-C ,  6-C ) :  -0.3289 
B(  3-C ,  9-O ) :  -0.1065 B(  3-C , 25-H ) :  -0.1213 B(  5-C ,  7-C ) :  -0.2932 
B(  5-C , 14-C ) :   0.4683 B(  5-C , 15-N ) :  -0.1244 B(  5-C , 25-H ) :   1.0184 
B(  6-C ,  7-C ) :   0.2870 B(  6-C , 14-C ) :   0.3490 B(  6-C , 16-C ) :   0.3328 
B(  6-C , 24-O ) :   0.3838 B(  6-C , 26-H ) :  -0.1255 B(  7-C , 10-O ) :  -0.1061 
B(  7-C , 13-H ) :   0.9812 B(  7-C , 20-C ) :  -0.1030 B(  7-C , 24-O ) :  -0.1049 
B(  8-S ,  9-O ) :   1.1470 B(  8-S , 10-O ) :   1.1978 B(  8-S , 11-N ) :   1.3098 
B( 11-N , 12-H ) :   0.9068 B( 14-C , 15-N ) :   0.9078 B( 14-C , 16-C ) :   0.7184 
B( 14-C , 17-C ) :  -0.1920 B( 14-C , 18-C ) :   0.6022 B( 14-C , 19-O ) :   0.1362 
B( 14-C , 20-C ) :   0.3755 B( 14-C , 23-C ) :  -0.3137 B( 14-C , 24-O ) :  -0.1555 
B( 14-C , 26-H ) :   0.2327 B( 15-N , 17-C ) :   1.1244 B( 15-N , 18-C ) :  -0.4493 
B( 15-N , 19-O ) :  -0.1019 B( 15-N , 26-H ) :   1.1129 B( 16-C , 17-C ) :   0.3711 
B( 16-C , 18-C ) :   0.4233 B( 16-C , 19-O ) :   0.1182 B( 16-C , 21-C ) :  -0.3608 
B( 16-C , 23-C ) :   0.3626 B( 16-C , 28-H ) :  -0.1300 B( 16-C , 29-H ) :   0.2268 
B( 17-C , 19-O ) :   0.4615 B( 17-C , 20-C ) :  -0.1553 B( 17-C , 23-C ) :   0.1828 
B( 17-C , 29-H ) :   0.1045 B( 17-C , 30-H ) :  -0.1602 B( 18-C , 19-O ) :   0.3423 
B( 18-C , 20-C ) :  -0.1339 B( 18-C , 21-C ) :   0.1037 B( 18-C , 22-C ) :   0.2090 
B( 18-C , 23-C ) :   0.1921 B( 18-C , 28-H ) :   0.2005 B( 18-C , 29-H ) :  -0.1369 
B( 18-C , 30-H ) :  -0.1068 B( 19-O , 30-H ) :   0.1463 B( 20-C , 21-C ) :   1.3769 
B( 20-C , 22-C ) :   0.2025 B( 20-C , 23-C ) :   0.1094 B( 20-C , 27-H ) :   0.8541 
B( 21-C , 22-C ) :   1.1969 B( 21-C , 23-C ) :  -0.2175 B( 21-C , 28-H ) :   0.7768 
B( 22-C , 23-C ) :   1.0579 B( 22-C , 28-H ) :  -0.1274 B( 22-C , 29-H ) :   0.2972 
B( 22-C , 30-H ) :  -0.1179 B( 23-C , 29-H ) :  -0.1245 B( 23-C , 30-H ) :   1.5490 
B( 24-O , 31-H ) :   1.1064 

-------
TIMINGS
-------

Total SCF time: 0 days 0 hours 9 min 56 sec 

Total time                  ....     596.172 sec
Sum of individual times     ....     591.562 sec  ( 99.2%)

Fock matrix formation       ....     577.049 sec  ( 96.8%)
  Split-RI-J                ....      34.795 sec  (  6.0% of F)
  Chain of spheres X        ....     485.405 sec  ( 84.1% of F)
  XC integration            ....      55.040 sec  (  9.5% of F)
    Basis function eval.    ....       7.783 sec  ( 14.1% of XC)
    Density eval.           ....      25.396 sec  ( 46.1% of XC)
    XC-Functional eval.     ....       0.352 sec  (  0.6% of XC)
    XC-Potential eval.      ....      19.083 sec  ( 34.7% of XC)
Diagonalization             ....       2.120 sec  (  0.4%)
Density matrix formation    ....       0.311 sec  (  0.1%)
Population analysis         ....       0.382 sec  (  0.1%)
Initial guess               ....       3.076 sec  (  0.5%)
Orbital Transformation      ....       0.000 sec  (  0.0%)
Orbital Orthonormalization  ....       0.000 sec  (  0.0%)
DIIS solution               ....       1.428 sec  (  0.2%)
SOSCF solution              ....       2.227 sec  (  0.4%)
Grid generation             ....       4.969 sec  (  0.8%)

Maximum memory used throughout the entire SCF-calculation: 368.0 MB


           ************************************************************
           *        Program running with 8 parallel MPI-processes     *
           *              working on a common directory               *
           ************************************************************

------------------------------------------------------------------------------
                                ORCA  MP2 
------------------------------------------------------------------------------

Freezing NCore=60 chemical core electrons

   <<< Use J-auxbasis for calculation of Separable RI-J derivative contributions (Dim=1192) >>> 


-------------
RI-MP2 ENERGY
-------------
Dimension of the basis                    ... 1250
Memory devoted to MP2                     ... 3000 MB   
Data format for buffers                   ... DOUBLE
Compression type for matrix containers    ... UNCOMPRESSED
Scaling for aa/bb pairs                   ...   2.500e-01
Scaling for ab pairs                      ...   5.300e-01
Overall scaling of the MP2 energy         ...   1.000e+00
Calculating two index integrals           ... done (    0.096 sec)
Cholesky decomposition of V**-1           ... done (    0.809 sec)

-----------------
RI-TRANSFORMATION (AUX index driven)
-----------------

Dimension of the orbital-basis         ... 1250
Dimension of the aux-basis             ... 2874
Transformation of internal/external MOs...   30-  86 to   87-1249
Number Format for Storage              ... Double (8 Byte)
Integral mode                          ... Direct

First Phase: integral generation and transformation of MO indices
  Aux angular momentum 0               ... done (    1.369 sec)
  Aux angular momentum 1               ... done (    2.459 sec)
  Aux angular momentum 2               ... done (    3.455 sec)
  Aux angular momentum 3               ... done (    3.222 sec)
  Aux angular momentum 4               ... done (    1.831 sec)
Closing buffer VIA ( 1.42 GB; CompressionRatio= 1.00)
  Phase 1 completed in    12.845 sec
Second Phase: sorting and transformation of aux index

IA-Transformation
Memory available                       ... 2855 MB 
Max. # MO pairs treated in a batch     ... 8    
# of internal orbitals                 ... 57
# batches for internal orbitals        ... 1
Closing buffer IAV ( 1.42 GB; CompressionRatio= 1.00)
(ia|v) transformation done in     3.275 sec

  Phase 2 completed in     3.580 sec
RI-Integral transformation completed in    16.445 sec
Opening buffers                              ... done

Starting loop over batches of integrals:

Operator 0  - window                       ... ( 30- 86)x( 87-1249)
Operator 0  - Memory available             ...  3000 MB
Operator 0  - Memory needed per MO         ...  25.5 MB
Operator 0  - Number of orbitals per batch ... 8
Operator 0  - Number of batches            ... 1

OPERATOR  0   PASS   0:  MOs    30 ...   37 +   38 ...   45 +   46 ...   53 +   54 ...   61
                            +   62 ...   69 +   70 ...   77 +   78 ...   85 +   86 ...   86
  Reading integrals       ... ok
  Internal MO  32
  Internal MO  35
Time spent in pair loops =     5.079 sec
Deleting buffer (Ka|jb)[aa] ...done

-----------------------------------------------
 RI-MP2 CORRELATION ENERGY:     -2.060091106 Eh
-----------------------------------------------


-------
TIMINGS
-------

Total time                :   74.049 sec
Integral trafo            :   16.462 sec ( 22.2%)
I/O of integrals          :    0.139 sec (  0.2%)
K(i,j) Operators          :    4.197 sec (  5.7%)
T(i,j) pair energies      :    0.474 sec (  0.6%)
V-calculation             :    0.096 sec (  0.1%)
V**(-1/2)                 :    0.809 sec (  1.1%)
Gamma(ia|P)               :    0.000 sec (  0.0%)
Gamma-Trafo               :    0.000 sec (  0.0%)
D(virtual)                :    0.000 sec (  0.0%)
D(internal)               :    0.000 sec (  0.0%)
W(virtual)                :    0.000 sec (  0.0%)
W(internal)               :    0.000 sec (  0.0%)
L(virtual)                :    0.000 sec (  0.0%)
L(internal)               :    0.000 sec (  0.0%)
G(D)                      :    0.000 sec (  0.0%)
G(Z)                      :    0.000 sec (  0.0%)
Z-Vector Solution         :    0.000 sec (  0.0%)
3-Index Derivative        :    0.000 sec (  0.0%)
2-Index Derivative        :    0.000 sec (  0.0%)
Separable Gradient (RIJ)  :    0.000 sec (  0.0%)
Separable Gradient (COSX) :    0.000 sec (  0.0%)


---------------------------------------
MP2 TOTAL ENERGY:    -1806.494083356 Eh
---------------------------------------

Maximum memory used throughout the entire MP2-calculation: 445.5 MB


-------------------------------------------------------------------------------
                          DFT DISPERSION CORRECTION                            
                                                                               
                              DFTD3 V3.1  Rev 1                                
                          USING Becke-Johnson damping                          
-------------------------------------------------------------------------------
The DSD-PBEP86 functional is recognized
Active option DFTDOPT                   ...         4   

molecular C6(AA) [au] = 16717.693672 


            DFT-D V3
 parameters
 s6 scaling factor         :     0.4180 
 a1 scaling factor         :     0.0000 
 s8 scaling factor         :     0.0000 
 a2 scaling factor         :     5.6500 
 ad hoc parameters k1-k3   :    16.0000     1.3333    -4.0000 

 Edisp/kcal,au: -18.297290817196  -0.029158585841 
 E6   /kcal   : -18.297290817 
 E8   /kcal   :  -0.000000000 
 % E8         :   0.000000000 

-------------------------   ----------------
Dispersion correction           -0.029158586
-------------------------   ----------------


-------------------------   --------------------
FINAL SINGLE POINT ENERGY     -1806.523241941350
-------------------------   --------------------


                            ***************************************
                            *     ORCA property calculations      *
                            ***************************************


  WARNING: The energy has been calculated at the MP2 level but the densities
           used in the property calculations are still SCF densities
           MP2 response densities have not been calculated 
           use %mp2 Density relaxed end
           or  %mp2 Density unrelaxed end

                                    ---------------------
                                    Active property flags
                                    ---------------------
   (+) Dipole Moment


------------------------------------------------------------------------------
                       ORCA ELECTRIC PROPERTIES CALCULATION
------------------------------------------------------------------------------

Dipole Moment Calculation                       ... on
Quadrupole Moment Calculation                   ... off
Polarizability Calculation                      ... off
GBWName                                         ... A.36.avtz.gbw
Electron density                                ... A.36.avtz.scfp
The origin for moment calculation is the CENTER OF MASS  = (-1.347446,  1.669848 -5.041849)

-------------
DIPOLE MOMENT
-------------
                                X             Y             Z
Electronic contribution:    -10.10853      -3.59915      10.02249
Nuclear contribution   :     12.48172       1.49267     -14.39088
                        -----------------------------------------
Total Dipole Moment    :      2.37319      -2.10647      -4.36839
                        -----------------------------------------
Magnitude (a.u.)       :      5.39927
Magnitude (Debye)      :     13.72386



--------------------
Rotational spectrum 
--------------------
 
Rotational constants in cm-1:     0.015603     0.004676     0.004303 
Rotational constants in MHz :   467.772847   140.194589   128.996740 

 Dipole components along the rotational axes: 
x,y,z [a.u.] :    -5.193686     1.171157    -0.897854 
x,y,z [Debye]:   -13.201301     2.976845    -2.282164 

 

Timings for individual modules:

Sum of individual times         ...      678.100 sec (=  11.302 min)
GTO integral calculation        ...        4.882 sec (=   0.081 min)   0.7 %
SCF iterations                  ...      597.472 sec (=   9.958 min)  88.1 %
MP2 module                      ...       75.745 sec (=   1.262 min)  11.2 %
                             ****ORCA TERMINATED NORMALLY****
TOTAL RUN TIME: 0 days 0 hours 11 minutes 21 seconds 655 msec
