
                                 *****************
                                 * O   R   C   A *
                                 *****************

                                            #,                                       
                                            ###                                      
                                            ####                                     
                                            #####                                    
                                            ######                                   
                                           ########,                                 
                                     ,,################,,,,,                         
                               ,,#################################,,                 
                          ,,##########################################,,             
                       ,#########################################, ''#####,          
                    ,#############################################,,   '####,        
                  ,##################################################,,,,####,       
                ,###########''''           ''''###############################       
              ,#####''   ,,,,##########,,,,          '''####'''          '####       
            ,##' ,,,,###########################,,,                        '##       
           ' ,,###''''                  '''############,,,                           
         ,,##''                                '''############,,,,        ,,,,,,###''
      ,#''                                            '''#######################'''  
     '                                                          ''''####''''         
             ,#######,   #######,   ,#######,      ##                                
            ,#'     '#,  ##    ##  ,#'     '#,    #''#        ######   ,####,        
            ##       ##  ##   ,#'  ##            #'  '#       #        #'  '#        
            ##       ##  #######   ##           ,######,      #####,   #    #        
            '#,     ,#'  ##    ##  '#,     ,#' ,#      #,         ##   #,  ,#        
             '#######'   ##     ##  '#######'  #'      '#     #####' # '####'        



                  #######################################################
                  #                        -***-                        #
                  #          Department of theory and spectroscopy      #
                  #    Directorship and core code : Frank Neese         #
                  #        Max Planck Institute fuer Kohlenforschung    #
                  #                Kaiser Wilhelm Platz 1               #
                  #                 D-45470 Muelheim/Ruhr               #
                  #                      Germany                        #
                  #                                                     #
                  #                  All rights reserved                #
                  #                        -***-                        #
                  #######################################################


                         Program Version 5.0.3 -  RELEASE  -


 With contributions from (in alphabetic order):
   Daniel Aravena         : Magnetic Suceptibility
   Michael Atanasov       : Ab Initio Ligand Field Theory (pilot matlab implementation)
   Alexander A. Auer      : GIAO ZORA, VPT2 properties, NMR spectrum
   Ute Becker             : Parallelization
   Giovanni Bistoni       : ED, misc. LED, open-shell LED, HFLD
   Martin Brehm           : Molecular dynamics
   Dmytro Bykov           : SCF Hessian
   Vijay G. Chilkuri      : MRCI spin determinant printing, contributions to CSF-ICE
   Dipayan Datta          : RHF DLPNO-CCSD density
   Achintya Kumar Dutta   : EOM-CC, STEOM-CC
   Dmitry Ganyushin       : Spin-Orbit,Spin-Spin,Magnetic field MRCI
   Miquel Garcia          : C-PCM and meta-GGA Hessian, CC/C-PCM, Gaussian charge scheme
   Yang Guo               : DLPNO-NEVPT2, F12-NEVPT2, CIM, IAO-localization
   Andreas Hansen         : Spin unrestricted coupled pair/coupled cluster methods
   Benjamin Helmich-Paris : MC-RPA, TRAH-SCF, COSX integrals
   Lee Huntington         : MR-EOM, pCC
   Robert Izsak           : Overlap fitted RIJCOSX, COSX-SCS-MP3, EOM
   Marcus Kettner         : VPT2
   Christian Kollmar      : KDIIS, OOCD, Brueckner-CCSD(T), CCSD density, CASPT2, CASPT2-K
   Simone Kossmann        : Meta GGA functionals, TD-DFT gradient, OOMP2, MP2 Hessian
   Martin Krupicka        : Initial AUTO-CI
   Lucas Lang             : DCDCAS
   Marvin Lechner         : AUTO-CI (C++ implementation), FIC-MRCC
   Dagmar Lenk            : GEPOL surface, SMD
   Dimitrios Liakos       : Extrapolation schemes; Compound Job, initial MDCI parallelization
   Dimitrios Manganas     : Further ROCIS development; embedding schemes
   Dimitrios Pantazis     : SARC Basis sets
   Anastasios Papadopoulos: AUTO-CI, single reference methods and gradients
   Taras Petrenko         : DFT Hessian,TD-DFT gradient, ASA, ECA, R-Raman, ABS, FL, XAS/XES, NRVS
   Peter Pinski           : DLPNO-MP2, DLPNO-MP2 Gradient
   Christoph Reimann      : Effective Core Potentials
   Marius Retegan         : Local ZFS, SOC
   Christoph Riplinger    : Optimizer, TS searches, QM/MM, DLPNO-CCSD(T), (RO)-DLPNO pert. Triples
   Tobias Risthaus        : Range-separated hybrids, TD-DFT gradient, RPA, STAB
   Michael Roemelt        : Original ROCIS implementation
   Masaaki Saitow         : Open-shell DLPNO-CCSD energy and density
   Barbara Sandhoefer     : DKH picture change effects
   Avijit Sen             : IP-ROCIS
   Kantharuban Sivalingam : CASSCF convergence, NEVPT2, FIC-MRCI
   Bernardo de Souza      : ESD, SOC TD-DFT
   Georgi Stoychev        : AutoAux, RI-MP2 NMR, DLPNO-MP2 response
   Willem Van den Heuvel  : Paramagnetic NMR
   Boris Wezisla          : Elementary symmetry handling
   Frank Wennmohs         : Technical directorship


 We gratefully acknowledge several colleagues who have allowed us to
 interface, adapt or use parts of their codes:
   Stefan Grimme, W. Hujo, H. Kruse, P. Pracht,  : VdW corrections, initial TS optimization,
                  C. Bannwarth, S. Ehlert          DFT functionals, gCP, sTDA/sTD-DF
   Ed Valeev, F. Pavosevic, A. Kumar             : LibInt (2-el integral package), F12 methods
   Garnet Chan, S. Sharma, J. Yang, R. Olivares  : DMRG
   Ulf Ekstrom                                   : XCFun DFT Library
   Mihaly Kallay                                 : mrcc  (arbitrary order and MRCC methods)
   Jiri Pittner, Ondrej Demel                    : Mk-CCSD
   Frank Weinhold                                : gennbo (NPA and NBO analysis)
   Christopher J. Cramer and Donald G. Truhlar   : smd solvation model
   Lars Goerigk                                  : TD-DFT with DH, B97 family of functionals
   V. Asgeirsson, H. Jonsson                     : NEB implementation
   FAccTs GmbH                                   : IRC, NEB, NEB-TS, DLPNO-Multilevel, CI-OPT
                                                   MM, QMMM, 2- and 3-layer-ONIOM, Crystal-QMMM,
                                                   LR-CPCM, SF, NACMEs, symmetry and pop. for TD-DFT,
                                                   nearIR, NL-DFT gradient (VV10), updates on ESD,
                                                   ML-optimized integration grids
   S Lehtola, MJT Oliveira, MAL Marques          : LibXC Library
   Liviu Ungur et al                             : ANISO software


 Your calculation uses the libint2 library for the computation of 2-el integrals
 For citations please refer to: http://libint.valeyev.net

 Your ORCA version has been built with support for libXC version: 5.1.0
 For citations please refer to: https://tddft.org/programs/libxc/

 This ORCA versions uses:
   CBLAS   interface :  Fast vector & matrix operations
   LAPACKE interface :  Fast linear algebra routines
   SCALAPACK package :  Parallel linear algebra routines
   Shared memory     :  Shared parallel matrices
   BLAS/LAPACK       :  OpenBLAS 0.3.15  USE64BITINT DYNAMIC_ARCH NO_AFFINITY SkylakeX SINGLE_THREADED
        Core in use  :  SkylakeX
   Copyright (c) 2011-2014, The OpenBLAS Project


Your calculation utilizes the atom-pairwise dispersion correction
with the Becke-Johnson damping scheme (D3BJ)
Cite in your paper:
S.Grimme, S.Ehrlich, L.Goerigk, J Comput Chem, (2011), 32, 1456–1465 
S.Grimme, J.Antony, S.Ehrlich and H.Krieg, J.Chem.Phys., 132, (2010), 154104 
   

================================================================================

----- Orbital basis set information -----
Your calculation utilizes the basis: aug-cc-pVTZ 
    H, B-Ne : Obtained from the ccRepo (grant-hill.group.shef.ac.uk/ccrepo) Feb. 2017
              R. A. Kendall, T. H. Dunning, Jr., R. J. Harrison, J. Chem. Phys. 96, 6796 (1992)
         He : Obtained from the ccRepo (grant-hill.group.shef.ac.uk/ccrepo) Feb. 2017
              D. E. Woon, T. H. Dunning, Jr., J. Chem. Phys. 100, 2975 (1994)
  Li-Be, Na : Obtained from the ccRepo (grant-hill.group.shef.ac.uk/ccrepo) Feb. 2017
              B. P. Prascher, D. E. Woon, K. A. Peterson, T. H. Dunning, Jr., A. K. Wilson, Theor. Chem. Acc. 128, 69 (2011)
         Mg : Obtained from the Peterson Research Group Website (tyr0.chem.wsu.edu/~kipeters) Feb. 2017
              B. P. Prascher, D. E. Woon, K. A. Peterson, T. H. Dunning, Jr., A. K. Wilson, Theor. Chem. Acc. 128, 69 (2011)
      Al-Ar : Obtained from the ccRepo (grant-hill.group.shef.ac.uk/ccrepo) Feb. 2017
              D. E. Woon, T. H. Dunning, Jr., J. Chem. Phys. 98, 1358 (1993)
      Sc-Zn : Obtained from the ccRepo (grant-hill.group.shef.ac.uk/ccrepo) Feb. 2017
              N. B. Balabanov, K. A. Peterson, J. Chem. Phys. 123, 064107 (2005)
              N. B. Balabanov, K. A. Peterson, J. Chem. Phys. 125, 074110 (2006)
      Ga-Kr : Obtained from the ccRepo (grant-hill.group.shef.ac.uk/ccrepo) Feb. 2017
              A. K. Wilson, D. E. Woon, K. A. Peterson, T. H. Dunning, Jr., J. Chem. Phys. 110, 7667 (1999)
     Ag, Au : Obtained from the Peterson Research Group Website (tyr0.chem.wsu.edu/~kipeters) Feb. 2017
              K. A. Peterson, C. Puzzarini, Theor. Chem. Acc. 114, 283 (2005)

----- AuxJ basis set information -----
Your calculation utilizes the auxiliary basis: def2/J
   F. Weigend, Phys. Chem. Chem. Phys. 8, 1057 (2006).

----- AuxC basis set information -----
Your calculation utilizes the auxiliary basis: aug-cc-pVTZ/C 
  H-He, B-F, Al-Ar, Ga-Kr : Obtained from the EMSL Basis Set Exchange (bse.pnl.gov) Feb. 2017
                            F. Weigend, A. Kohn, C. Hattig, J. Chem. Phys. 116, 3175 (2002)
                   Be, Mg : Obtained from the TURBOMOLE 7.0 basis set library
                            C. Haettig, Phys. Chem. Chem. Phys. 7, 59 (2005)
                       Ne : Obtained from the EMSL Basis Set Exchange (bse.pnl.gov) Feb. 2017
                            C. Haettig, Phys. Chem. Chem. Phys. 7, 59 (2005)
                            F. Weigend, A. Kohn, C. Hattig, J. Chem. Phys. 116, 3175 (2002)
                    Sc-Zn : Obtained from the EMSL Basis Set Exchange (bse.pnl.gov) Feb. 2017
                            J. G. Hill, J. A. Platts, J. Chem. Phys. 128, 044104 (2008)

================================================================================
                                        WARNINGS
                       Please study these warnings very carefully!
================================================================================


WARNING: No MP2 level density has been requested!
         To caclulate MP2 level properties use
         %mp2 Density relaxed end
         or
         %mp2 Density unrelaxed end
         Otherwise for double-hybrid DFT only the energy is correct!

WARNING: There are different parametrizations of Gershom Martin's DSD-DFs
         for use with and without D3(BJ)!
         You are using the D3(BJ) parametrized version,
         consistent with the GMTKN55 benchmark (L. Goerigk et al., PCCP 2017, 19, 32184)

WARNING: The frozen-core approximation is turned on by default for 
         the MP2 part of double-hybrid DFT.

INFO   : the flag for use of the SHARK integral package has been found!

================================================================================
                                       INPUT FILE
================================================================================
NAME = A.37.avtz.com
|  1> !PAL8
|  2> !RI-DSD-PBEP86 D3BJ aug-cc-pVTZ aug-cc-pVTZ/C TightSCF
|  3> %maxcore 3000
|  4> 
|  5> 
|  6> * xyz -1 1
|  7> C -2.2550371725  0.8288010247 -1.3377730099
|  8> C -2.21410062  1.9728945798 -2.1324016549
|  9> Cl -3.4100640061  3.2338678793 -1.9695424604
| 10> C -1.213023544  2.1643474816 -3.0864476694
| 11> H -1.2151925598  3.0705430496 -3.6842964965
| 12> C -0.2314835141  1.1989369584 -3.2613749139
| 13> C -0.2513138072  0.0404267115 -2.4803526014
| 14> C -1.2553489946 -0.1239104376 -1.5235103583
| 15> S -3.5275619701  0.499802383 -0.0375629365
| 16> O -4.7773468242  0.5491161457 -0.8268421801
| 17> O -3.1033952976 -0.8313664843  0.4370803122
| 18> N -3.3722254059  1.5694461751  1.0821068851
| 19> H -3.9065332995  2.3864307334  0.7818189218
| 20> H -1.3123502211 -0.9826962262 -0.8603010136
| 21> H  0.5569197206  1.3263542042 -3.9964227614
| 22> C  0.822599083 -0.9699635252 -2.7313045987
| 23> N  0.6352158646 -2.2023142038 -2.1487231985
| 24> O  1.8081596705 -0.7399421616 -3.4174655025
| 25> N  1.5424498875 -3.2316666013 -2.2927971922
| 26> C  1.6983256387 -3.8110391198 -3.6499264186
| 27> C  2.9983186079 -4.6261445988 -3.5041152438
| 28> C  3.740494807 -3.8777024315 -2.4199298295
| 29> C  2.8277304178 -3.0601075148 -1.7466701563
| 30> C  0.477241991 -4.6150941865 -4.0538097281
| 31> C  3.2083269977 -2.2582891552 -0.6796345024
| 32> C  4.5490421778 -2.2982109927 -0.2866212202
| 33> C  5.4723126043 -3.1142605038 -0.940569662
| 34> C  5.0646684982 -3.9131442883 -2.0171792777
| 35> H -0.2057231362 -2.4221243175 -1.6346171175
| 36> H  1.8658533109 -2.9851916705 -4.3553604619
| 37> H  3.5482369493 -4.6950200771 -4.4472150242
| 38> H  2.7628093967 -5.6479862716 -3.1718283061
| 39> H -0.4159975712 -3.9823728254 -4.0755999951
| 40> H  0.3072527576 -5.4331651715 -3.3454832075
| 41> H  0.6146216827 -5.0380586695 -5.0548872122
| 42> H  2.4893878814 -1.6129514001 -0.1836721105
| 43> H  4.8757360196 -1.672630405  0.5394447965
| 44> H  6.5102574914 -3.1228892902 -0.621273119
| 45> H  5.7820844883 -4.5445027968 -2.5369577752
| 46> *
| 47> 
| 48>                          ****END OF INPUT****
================================================================================

                       ****************************
                       * Single Point Calculation *
                       ****************************

---------------------------------
CARTESIAN COORDINATES (ANGSTROEM)
---------------------------------
  C     -2.255037    0.828801   -1.337773
  C     -2.214101    1.972895   -2.132402
  Cl    -3.410064    3.233868   -1.969542
  C     -1.213024    2.164347   -3.086448
  H     -1.215193    3.070543   -3.684296
  C     -0.231484    1.198937   -3.261375
  C     -0.251314    0.040427   -2.480353
  C     -1.255349   -0.123910   -1.523510
  S     -3.527562    0.499802   -0.037563
  O     -4.777347    0.549116   -0.826842
  O     -3.103395   -0.831366    0.437080
  N     -3.372225    1.569446    1.082107
  H     -3.906533    2.386431    0.781819
  H     -1.312350   -0.982696   -0.860301
  H      0.556920    1.326354   -3.996423
  C      0.822599   -0.969964   -2.731305
  N      0.635216   -2.202314   -2.148723
  O      1.808160   -0.739942   -3.417466
  N      1.542450   -3.231667   -2.292797
  C      1.698326   -3.811039   -3.649926
  C      2.998319   -4.626145   -3.504115
  C      3.740495   -3.877702   -2.419930
  C      2.827730   -3.060108   -1.746670
  C      0.477242   -4.615094   -4.053810
  C      3.208327   -2.258289   -0.679635
  C      4.549042   -2.298211   -0.286621
  C      5.472313   -3.114261   -0.940570
  C      5.064668   -3.913144   -2.017179
  H     -0.205723   -2.422124   -1.634617
  H      1.865853   -2.985192   -4.355360
  H      3.548237   -4.695020   -4.447215
  H      2.762809   -5.647986   -3.171828
  H     -0.415998   -3.982373   -4.075600
  H      0.307253   -5.433165   -3.345483
  H      0.614622   -5.038059   -5.054887
  H      2.489388   -1.612951   -0.183672
  H      4.875736   -1.672630    0.539445
  H      6.510257   -3.122889   -0.621273
  H      5.782084   -4.544503   -2.536958

----------------------------
CARTESIAN COORDINATES (A.U.)
----------------------------
  NO LB      ZA    FRAG     MASS         X           Y           Z
   0 C     6.0000    0    12.011   -4.261403    1.566207   -2.528025
   1 C     6.0000    0    12.011   -4.184044    3.728230   -4.029655
   2 Cl   17.0000    0    35.453   -6.444087    6.111125   -3.721896
   3 C     6.0000    0    12.011   -2.292282    4.090024   -5.832541
   4 H     1.0000    0     1.008   -2.296381    5.802485   -6.962311
   5 C     6.0000    0    12.011   -0.437440    2.265663   -6.163105
   6 C     6.0000    0    12.011   -0.474914    0.076395   -4.687187
   7 C     6.0000    0    12.011   -2.372266   -0.234157   -2.879017
   8 S    16.0000    0    32.060   -6.666126    0.944490   -0.070984
   9 O     8.0000    0    15.999   -9.027877    1.037679   -1.562505
  10 O     8.0000    0    15.999   -5.864567   -1.571055    0.825962
  11 N     7.0000    0    14.007   -6.372582    2.965823    2.044886
  12 H     1.0000    0     1.008   -7.382278    4.509701    1.477424
  13 H     1.0000    0     1.008   -2.479983   -1.857027   -1.625733
  14 H     1.0000    0     1.008    1.052426    2.506446   -7.552145
  15 C     6.0000    0    12.011    1.554487   -1.832965   -5.161418
  16 N     7.0000    0    14.007    1.200384   -4.161771   -4.060498
  17 O     8.0000    0    15.999    3.416927   -1.398288   -6.458074
  18 N     7.0000    0    14.007    2.914808   -6.106965   -4.332759
  19 C     6.0000    0    12.011    3.209370   -7.201820   -6.897361
  20 C     6.0000    0    12.011    5.666001   -8.742146   -6.621818
  21 C     6.0000    0    12.011    7.068511   -7.327796   -4.573005
  22 C     6.0000    0    12.011    5.343636   -5.782765   -3.300728
  23 C     6.0000    0    12.011    0.901857   -8.721264   -7.660590
  24 C     6.0000    0    12.011    6.062859   -4.267548   -1.284323
  25 C     6.0000    0    12.011    8.596444   -4.342989   -0.541636
  26 C     6.0000    0    12.011   10.341172   -5.885099   -1.777419
  27 C     6.0000    0    12.011    9.570836   -7.394771   -3.811916
  28 H     1.0000    0     1.008   -0.388760   -4.577152   -3.088979
  29 H     1.0000    0     1.008    3.525952   -5.641195   -8.230438
  30 H     1.0000    0     1.008    6.705196   -8.872302   -8.404018
  31 H     1.0000    0     1.008    5.220953  -10.673147   -5.993887
  32 H     1.0000    0     1.008   -0.786121   -7.525594   -7.701768
  33 H     1.0000    0     1.008    0.580624  -10.267194   -6.322047
  34 H     1.0000    0     1.008    1.161467   -9.520551   -9.552352
  35 H     1.0000    0     1.008    4.704261   -3.048036   -0.347090
  36 H     1.0000    0     1.008    9.213806   -3.160813    1.019403
  37 H     1.0000    0     1.008   12.302604   -5.901406   -1.174036
  38 H     1.0000    0     1.008   10.926556   -8.587866   -4.794155

--------------------------------
INTERNAL COORDINATES (ANGSTROEM)
--------------------------------
 C      0   0   0     0.000000000000     0.00000000     0.00000000
 C      1   0   0     1.393578324891     0.00000000     0.00000000
 Cl     2   1   0     1.745538656168   121.31507124     0.00000000
 C      2   1   3     1.396070672811   121.55508397   179.63803300
 H      4   2   1     1.085641898674   119.29885588   180.12371360
 C      4   2   1     1.387817657140   119.86041821     0.20672950
 C      6   4   2     1.397331415706   119.75232032     0.00000000
 C      1   2   3     1.393389373442   117.66155006   180.56242207
 S      1   2   3     1.848811970352   124.56361807   359.57380128
 O      9   1   2     1.478971180621   101.55965738    58.58423332
 O      9   1   2     1.475538590775   100.88877006   178.68622859
 N      9   1   2     1.556254413506   108.35871842   295.43232008
 H     12   9   1     1.021333224059   106.62155182    85.00810686
 H      8   1   2     1.086558238394   114.92341646   178.19215591
 H      6   4   2     1.085407828020   121.15955412   180.03848342
 C      7   6   4     1.495711947905   117.13576060   179.13424401
 N     16   7   6     1.375936682207   115.86229889   192.37092901
 O     16   7   6     1.222724942597   123.07954072    11.76764440
 N     17  16   7     1.379636635570   122.30823917   180.02784769
 C     19  17  16     1.483836076578   117.12359625   293.13237598
 C     20  19  17     1.541310987621   102.03835563   165.90203752
 C     21  20  19     1.512100922850   102.71193041   332.12993651
 C     22  21  20     1.398169827154   108.31696116    17.44619880
 C     20  19  17     1.516796477006   111.46596469   289.23757190
 C     23  22  21     1.387923457946   121.93816795   179.11045564
 C     25  23  22     1.397701823439   117.56238907   359.63049611
 C     26  25  23     1.394995931732   121.31575693   359.93972576
 C     22  21  20     1.384521612924   131.70792979   195.62919889
 H     17  16   7     1.009851450300   121.59494560     3.76283147
 H     20  19  17     1.098966205083   108.04048617    50.82393693
 H     21  20  19     1.093888115627   112.07043992   209.66392724
 H     21  20  19     1.100018000669   109.83159744    89.57521020
 H     24  20  19     1.094846131658   110.83937209    60.87408145
 H     24  20  19     1.095382552242   110.40445562   300.57740648
 H     24  20  19     1.095412371093   110.30784745   180.30945940
 H     25  23  22     1.085961769715   120.85578509   178.60107403
 H     26  25  23     1.086492062522   119.06282848   179.38040427
 H     27  26  25     1.085980813359   119.95950089   179.57158046
 H     28  22  21     1.087873593562   120.43699300     2.14782770

---------------------------
INTERNAL COORDINATES (A.U.)
---------------------------
 C      0   0   0     0.000000000000     0.00000000     0.00000000
 C      1   0   0     2.633481380213     0.00000000     0.00000000
 Cl     2   1   0     3.298590016331   121.31507124     0.00000000
 C      2   1   3     2.638191235212   121.55508397   179.63803300
 H      4   2   1     2.051565868005   119.29885588   180.12371360
 C      4   2   1     2.622595295815   119.86041821     0.20672950
 C      6   4   2     2.640573694009   119.75232032     0.00000000
 C      1   2   3     2.633124313722   117.66155006   180.56242207
 S      1   2   3     3.493748297081   124.56361807   359.57380128
 O      9   1   2     2.794850491336   101.55965738    58.58423332
 O      9   1   2     2.788363836596   100.88877006   178.68622859
 N      9   1   2     2.940894636233   108.35871842   295.43232008
 H     12   9   1     1.930040084946   106.62155182    85.00810686
 H      8   1   2     2.053297499120   114.92341646   178.19215591
 H      6   4   2     2.051123538572   121.15955412   180.03848342
 C      7   6   4     2.826485956774   117.13576060   179.13424401
 N     16   7   6     2.600143506987   115.86229889   192.37092901
 O     16   7   6     2.310615278623   123.07954072    11.76764440
 N     17  16   7     2.607135405552   122.30823917   180.02784769
 C     19  17  16     2.804043812365   117.12359625   293.13237598
 C     20  19  17     2.912655653808   102.03835563   165.90203752
 C     21  20  19     2.857456631036   102.71193041   332.12993651
 C     22  21  20     2.642158062032   108.31696116    17.44619880
 C     20  19  17     2.866329942439   111.46596469   289.23757190
 C     23  22  21     2.622795230363   121.93816795   179.11045564
 C     25  23  22     2.641273663183   117.56238907   359.63049611
 C     26  25  23     2.636160268908   121.31575693   359.93972576
 C     22  21  20     2.616366674922   131.70792979   195.62919889
 H     17  16   7     1.908342677010   121.59494560     3.76283147
 H     20  19  17     2.076745158042   108.04048617    50.82393693
 H     21  20  19     2.067148959686   112.07043992   209.66392724
 H     21  20  19     2.078732763649   109.83159744    89.57521020
 H     24  20  19     2.068959347618   110.83937209    60.87408145
 H     24  20  19     2.069973035613   110.40445562   300.57740648
 H     24  20  19     2.070029385075   110.30784745   180.30945940
 H     25  23  22     2.052170336670   120.85578509   178.60107403
 H     26  25  23     2.053172444846   119.06282848   179.38040427
 H     27  26  25     2.052206323941   119.95950089   179.57158046
 H     28  22  21     2.055783160157   120.43699300     2.14782770

---------------------
BASIS SET INFORMATION
---------------------
There are 6 groups of distinct atoms

 Group   1 Type C   : 19s6p3d2f contracted to 5s4p3d2f pattern {88111/3111/111/11}
 Group   2 Type Cl  : 42s17p3d2f contracted to 6s5p3d2f pattern {131313111/77111/111/11}
 Group   3 Type H   : 6s3p2d contracted to 4s3p2d pattern {3111/111/11}
 Group   4 Type S   : 42s17p3d2f contracted to 6s5p3d2f pattern {131313111/77111/111/11}
 Group   5 Type O   : 19s6p3d2f contracted to 5s4p3d2f pattern {88111/3111/111/11}
 Group   6 Type N   : 19s6p3d2f contracted to 5s4p3d2f pattern {88111/3111/111/11}

Atom   0C    basis set group =>   1
Atom   1C    basis set group =>   1
Atom   2Cl   basis set group =>   2
Atom   3C    basis set group =>   1
Atom   4H    basis set group =>   3
Atom   5C    basis set group =>   1
Atom   6C    basis set group =>   1
Atom   7C    basis set group =>   1
Atom   8S    basis set group =>   4
Atom   9O    basis set group =>   5
Atom  10O    basis set group =>   5
Atom  11N    basis set group =>   6
Atom  12H    basis set group =>   3
Atom  13H    basis set group =>   3
Atom  14H    basis set group =>   3
Atom  15C    basis set group =>   1
Atom  16N    basis set group =>   6
Atom  17O    basis set group =>   5
Atom  18N    basis set group =>   6
Atom  19C    basis set group =>   1
Atom  20C    basis set group =>   1
Atom  21C    basis set group =>   1
Atom  22C    basis set group =>   1
Atom  23C    basis set group =>   1
Atom  24C    basis set group =>   1
Atom  25C    basis set group =>   1
Atom  26C    basis set group =>   1
Atom  27C    basis set group =>   1
Atom  28H    basis set group =>   3
Atom  29H    basis set group =>   3
Atom  30H    basis set group =>   3
Atom  31H    basis set group =>   3
Atom  32H    basis set group =>   3
Atom  33H    basis set group =>   3
Atom  34H    basis set group =>   3
Atom  35H    basis set group =>   3
Atom  36H    basis set group =>   3
Atom  37H    basis set group =>   3
Atom  38H    basis set group =>   3
---------------------------------
AUXILIARY/J BASIS SET INFORMATION
---------------------------------
There are 6 groups of distinct atoms

 Group   1 Type C   : 12s5p4d2f1g contracted to 6s4p3d1f1g pattern {711111/2111/211/2/1}
 Group   2 Type Cl  : 14s5p5d2f1g contracted to 8s4p3d1f1g pattern {71111111/2111/311/2/1}
 Group   3 Type H   : 5s2p1d contracted to 3s1p1d pattern {311/2/1}
 Group   4 Type S   : 14s5p5d2f1g contracted to 8s4p3d1f1g pattern {71111111/2111/311/2/1}
 Group   5 Type O   : 12s5p4d2f1g contracted to 6s4p3d1f1g pattern {711111/2111/211/2/1}
 Group   6 Type N   : 12s5p4d2f1g contracted to 6s4p3d1f1g pattern {711111/2111/211/2/1}

Atom   0C    basis set group =>   1
Atom   1C    basis set group =>   1
Atom   2Cl   basis set group =>   2
Atom   3C    basis set group =>   1
Atom   4H    basis set group =>   3
Atom   5C    basis set group =>   1
Atom   6C    basis set group =>   1
Atom   7C    basis set group =>   1
Atom   8S    basis set group =>   4
Atom   9O    basis set group =>   5
Atom  10O    basis set group =>   5
Atom  11N    basis set group =>   6
Atom  12H    basis set group =>   3
Atom  13H    basis set group =>   3
Atom  14H    basis set group =>   3
Atom  15C    basis set group =>   1
Atom  16N    basis set group =>   6
Atom  17O    basis set group =>   5
Atom  18N    basis set group =>   6
Atom  19C    basis set group =>   1
Atom  20C    basis set group =>   1
Atom  21C    basis set group =>   1
Atom  22C    basis set group =>   1
Atom  23C    basis set group =>   1
Atom  24C    basis set group =>   1
Atom  25C    basis set group =>   1
Atom  26C    basis set group =>   1
Atom  27C    basis set group =>   1
Atom  28H    basis set group =>   3
Atom  29H    basis set group =>   3
Atom  30H    basis set group =>   3
Atom  31H    basis set group =>   3
Atom  32H    basis set group =>   3
Atom  33H    basis set group =>   3
Atom  34H    basis set group =>   3
Atom  35H    basis set group =>   3
Atom  36H    basis set group =>   3
Atom  37H    basis set group =>   3
Atom  38H    basis set group =>   3
---------------------------------
AUXILIARY/C BASIS SET INFORMATION
---------------------------------
There are 6 groups of distinct atoms

 Group   1 Type C   : 9s7p6d4f2g contracted to 9s7p6d4f2g pattern {111111111/1111111/111111/1111/11}
 Group   2 Type Cl  : 11s9p8d6f3g contracted to 11s9p8d6f3g pattern {11111111111/111111111/11111111/111111/111}
 Group   3 Type H   : 5s4p3d2f contracted to 5s4p3d2f pattern {11111/1111/111/11}
 Group   4 Type S   : 11s9p8d6f3g contracted to 11s9p8d6f3g pattern {11111111111/111111111/11111111/111111/111}
 Group   5 Type O   : 9s7p6d4f2g contracted to 9s7p6d4f2g pattern {111111111/1111111/111111/1111/11}
 Group   6 Type N   : 9s7p6d4f2g contracted to 9s7p6d4f2g pattern {111111111/1111111/111111/1111/11}

Atom   0C    basis set group =>   1
Atom   1C    basis set group =>   1
Atom   2Cl   basis set group =>   2
Atom   3C    basis set group =>   1
Atom   4H    basis set group =>   3
Atom   5C    basis set group =>   1
Atom   6C    basis set group =>   1
Atom   7C    basis set group =>   1
Atom   8S    basis set group =>   4
Atom   9O    basis set group =>   5
Atom  10O    basis set group =>   5
Atom  11N    basis set group =>   6
Atom  12H    basis set group =>   3
Atom  13H    basis set group =>   3
Atom  14H    basis set group =>   3
Atom  15C    basis set group =>   1
Atom  16N    basis set group =>   6
Atom  17O    basis set group =>   5
Atom  18N    basis set group =>   6
Atom  19C    basis set group =>   1
Atom  20C    basis set group =>   1
Atom  21C    basis set group =>   1
Atom  22C    basis set group =>   1
Atom  23C    basis set group =>   1
Atom  24C    basis set group =>   1
Atom  25C    basis set group =>   1
Atom  26C    basis set group =>   1
Atom  27C    basis set group =>   1
Atom  28H    basis set group =>   3
Atom  29H    basis set group =>   3
Atom  30H    basis set group =>   3
Atom  31H    basis set group =>   3
Atom  32H    basis set group =>   3
Atom  33H    basis set group =>   3
Atom  34H    basis set group =>   3
Atom  35H    basis set group =>   3
Atom  36H    basis set group =>   3
Atom  37H    basis set group =>   3
Atom  38H    basis set group =>   3


           ************************************************************
           *        Program running with 8 parallel MPI-processes     *
           *              working on a common directory               *
           ************************************************************
------------------------------------------------------------------------------
                           ORCA GTO INTEGRAL CALCULATION
                           -- RI-GTO INTEGRALS CHOSEN --
------------------------------------------------------------------------------
------------------------------------------------------------------------------
                   ___                                                        
                  /   \      - P O W E R E D   B Y -                         
                 /     \                                                     
                 |  |  |   _    _      __       _____    __    __             
                 |  |  |  | |  | |    /  \     |  _  \  |  |  /  |          
                  \  \/   | |  | |   /    \    | | | |  |  | /  /          
                 / \  \   | |__| |  /  /\  \   | |_| |  |  |/  /          
                |  |  |   |  __  | /  /__\  \  |    /   |      \           
                |  |  |   | |  | | |   __   |  |    \   |  |\   \          
                \     /   | |  | | |  |  |  |  | |\  \  |  | \   \       
                 \___/    |_|  |_| |__|  |__|  |_| \__\ |__|  \__/        
                                                                              
                      - O R C A' S   B I G   F R I E N D -                    
                                      &                                       
                       - I N T E G R A L  F E E D E R -                       
                                                                              
 v1 FN, 2020, v2 2021                                                         
------------------------------------------------------------------------------


Reading SHARK input file A.37.avtz.SHARKINP.tmp ... ok
----------------------
SHARK INTEGRAL PACKAGE
----------------------

Number of atoms                             ...     39
Number of basis functions                   ...   1639
Number of shells                            ...    637
Maximum angular momentum                    ...      3
Integral batch strategy                     ... SHARK/LIBINT Hybrid
RI-J (if used) integral strategy            ... SPLIT-RIJ (Revised 2003 algorithm where possible)
Printlevel                                  ...      1
Contraction scheme used                     ... PARTIAL GENERAL contraction
Coulomb Range Separation                    ... NOT USED
Exchange Range Separation                   ... NOT USED
Finite Nucleus Model                        ... NOT USED
Auxiliary Coulomb fitting basis             ... AVAILABLE
   # of basis functions in Aux-J            ...   1345
   # of shells in Aux-J                     ...    439
   Maximum angular momentum in Aux-J        ...      4
Auxiliary J/K fitting basis                 ... NOT available
Auxiliary Correlation fitting basis         ... AVAILABLE
   # of basis functions in Aux-C            ...   3316
   # of shells in Aux-C                     ...    900
   Maximum angular momentum in Aux-C        ...      4
Auxiliary 'external' fitting basis          ... NOT available
Integral threshold                          ...     2.500000e-11
Primitive cut-off                           ...     2.500000e-12
Primitive pair pre-selection threshold      ...     2.500000e-12

Calculating pre-screening integrals         ... done (  0.1 sec) Dimension = 637
Calculating pre-screening integrals (ORCA)  ... done (  0.4 sec) Dimension = 475
Organizing shell pair data                  ... done (  1.3 sec)
Shell pair information
Total number of shell pairs                 ...    203203
Shell pairs after pre-screening             ...    126370
Total number of primitive shell pairs       ...    253227
Primitive shell pairs kept                  ...    144123
          la=0 lb=0:  27692 shell pairs
          la=1 lb=0:  33199 shell pairs
          la=1 lb=1:   8958 shell pairs
          la=2 lb=0:  21383 shell pairs
          la=2 lb=1:  11734 shell pairs
          la=2 lb=2:   3935 shell pairs
          la=3 lb=0:   9661 shell pairs
          la=3 lb=1:   5402 shell pairs
          la=3 lb=2:   3568 shell pairs
          la=3 lb=3:    838 shell pairs

Calculating one electron integrals          ... done (  0.3 sec)
Calculating RI/J V-Matrix + Cholesky decomp.... done (  0.1 sec)
Calculating RI/C V-Matrix + Cholesky decomp.... done (  0.7 sec)
Calculating Nuclear repulsion               ... done (  0.0 sec) ENN=   2313.364349291966 Eh

SHARK setup successfully completed in   4.4 seconds

Maximum memory used throughout the entire GTOINT-calculation: 166.3 MB


           ************************************************************
           *        Program running with 8 parallel MPI-processes     *
           *              working on a common directory               *
           ************************************************************
-------------------------------------------------------------------------------
                                 ORCA SCF
-------------------------------------------------------------------------------

------------
SCF SETTINGS
------------
Hamiltonian:
 Density Functional     Method          .... DFT(GTOs)
 Exchange Functional    Exchange        .... PBE
   PBE kappa parameter   XKappa         ....  0.804000
   PBE mue parameter    XMuePBE         ....  0.219520
 Correlation Functional Correlation     .... P86
 LDA part of GGA corr.  LDAOpt          .... VWN-5
 Gradients option       PostSCFGGA      .... off
 Hybrid DFT is turned on
   Fraction HF Exchange ScalHFX         ....  0.700000
   Scaling of DF-GGA-X  ScalDFX         ....  0.300000
   Scaling of DF-GGA-C  ScalDFC         ....  0.430000
   Scaling of DF-LDA-C  ScalLDAC        ....  0.430000
   Perturbative correction              ....  1.000000
   Density functional embedding theory  .... OFF
   NL short-range parameter             .... 14.200000
 RI-approximation to the Coulomb term is turned on
   Number of AuxJ basis functions       .... 1345
   RIJ-COSX (HFX calculated with COS-X)).... on


General Settings:
 Integral files         IntName         .... A.37.avtz
 Hartree-Fock type      HFTyp           .... RHF
 Total Charge           Charge          ....   -1
 Multiplicity           Mult            ....    1
 Number of Electrons    NEL             ....  190
 Basis Dimension        Dim             .... 1457
 Nuclear Repulsion      ENuc            ....   2313.3643492920 Eh

Convergence Acceleration:
 DIIS                   CNVDIIS         .... on
   Start iteration      DIISMaxIt       ....    12
   Startup error        DIISStart       ....  0.200000
   # of expansion vecs  DIISMaxEq       ....     5
   Bias factor          DIISBfac        ....   1.050
   Max. coefficient     DIISMaxC        ....  10.000
 Trust-Rad. Augm. Hess. CNVTRAH         .... auto
   Auto Start mean grad. ratio tolernc. ....  1.125000
   Auto Start start iteration           ....    20
   Auto Start num. interpolation iter.  ....    10
   Max. Number of Micro iterations      ....    16
   Max. Number of Macro iterations      .... Maxiter - #DIIS iter
   Number of Davidson start vectors     ....     2
   Converg. threshold I  (grad. norm)   ....   1.000e-05
   Converg. threshold II (energy diff.) ....   1.000e-08
   Grad. Scal. Fac. for Micro threshold ....   0.100
   Minimum threshold for Micro iter.    ....   0.010
   NR start threshold (gradient norm)   ....   0.001
   Initial trust radius                 ....   0.400
   Minimum AH scaling param. (alpha)    ....   1.000
   Maximum AH scaling param. (alpha)    .... 1000.000
   Orbital update algorithm             .... Taylor
   White noise on init. David. guess    .... on
   Maximum white noise                  ....   0.010
   Quad. conv. algorithm                .... NR
 SOSCF                  CNVSOSCF        .... on
   Start iteration      SOSCFMaxIt      ....   150
   Startup grad/error   SOSCFStart      ....  0.003300
 Level Shifting         CNVShift        .... on
   Level shift para.    LevelShift      ....    0.2500
   Turn off err/grad.   ShiftErr        ....    0.0010
 Zerner damping         CNVZerner       .... off
 Static damping         CNVDamp         .... on
   Fraction old density DampFac         ....    0.7000
   Max. Damping (<1)    DampMax         ....    0.9800
   Min. Damping (>=0)   DampMin         ....    0.0000
   Turn off err/grad.   DampErr         ....    0.1000
 Fernandez-Rico         CNVRico         .... off

SCF Procedure:
 Maximum # iterations   MaxIter         ....   125
 SCF integral mode      SCFMode         .... Direct
   Integral package                     .... SHARK and LIBINT hybrid scheme
 Reset frequency        DirectResetFreq ....    20
 Integral Threshold     Thresh          ....  2.500e-11 Eh
 Primitive CutOff       TCut            ....  2.500e-12 Eh

Convergence Tolerance:
 Convergence Check Mode ConvCheckMode   .... Total+1el-Energy
 Convergence forced     ConvForced      .... 0
 Energy Change          TolE            ....  1.000e-08 Eh
 1-El. energy change                    ....  1.000e-05 Eh
 Orbital Gradient       TolG            ....  1.000e-05
 Orbital Rotation angle TolX            ....  1.000e-05
 DIIS Error             TolErr          ....  5.000e-07


Diagonalization of the overlap matrix:
Smallest eigenvalue                        ... 1.983e-07
Time for diagonalization                   ...    0.313 sec
Threshold for overlap eigenvalues          ... 1.000e-08
Number of eigenvalues below threshold      ... 0
Time for construction of square roots      ...    0.246 sec
Total time needed                          ...    0.568 sec

Time for model grid setup =    0.536 sec

------------------------------
INITIAL GUESS: MODEL POTENTIAL
------------------------------
Loading Hartree-Fock densities                     ... done
Calculating cut-offs                               ... done
Initializing the effective Hamiltonian             ... done
Setting up the integral package (SHARK)            ... done
Starting the Coulomb interaction                   ... done (   2.0 sec)
Reading the grid                                   ... done
Mapping shells                                     ... done
Starting the XC term evaluation                    ... done (   1.8 sec)
  promolecular density results
     # of electrons  =    188.990249717
     EX              =   -182.759868746
     EC              =     -0.057940519
     EX+EC           =   -182.817809265
Transforming the Hamiltonian                       ... done (   0.2 sec)
Diagonalizing the Hamiltonian                      ... done (   0.3 sec)
Back transforming the eigenvectors                 ... done (   0.1 sec)
Now organizing SCF variables                       ... done
                      ------------------
                      INITIAL GUESS DONE (   4.9 sec)
                      ------------------
-------------------
DFT GRID GENERATION
-------------------

General Integration Accuracy     IntAcc      ... 4.388
Radial Grid Type                 RadialGrid  ... OptM3 with GC (2021)
Angular Grid (max. ang.)         AngularGrid ... 4 (Lebedev-302)
Angular grid pruning method      GridPruning ... 4 (adaptive)
Weight generation scheme         WeightScheme... Becke
Basis function cutoff            BFCut       ... 1.0000e-11
Integration weight cutoff        WCut        ... 1.0000e-14
Angular grids for H and He will be reduced by one unit
Partially contracted basis set               ... off
Rotationally invariant grid construction     ... off

Total number of grid points                  ...   202566
Total number of batches                      ...     3187
Average number of points per batch           ...       63
Average number of grid points per atom       ...     5194
Time for grid setup =    1.854 sec

--------------------
COSX GRID GENERATION
--------------------

GRIDX 1
-------
General Integration Accuracy     IntAcc      ... 3.816
Radial Grid Type                 RadialGrid  ... OptM3 with GC (2021)
Angular Grid (max. ang.)         AngularGrid ... 1 (Lebedev-50)
Angular grid pruning method      GridPruning ... 4 (adaptive)
Weight generation scheme         WeightScheme... Becke
Basis function cutoff            BFCut       ... 1.0000e-11
Integration weight cutoff        WCut        ... 1.0000e-14
Angular grids for H and He will be reduced by one unit
Partially contracted basis set               ... on
Rotationally invariant grid construction     ... off

Total number of grid points                  ...    25206
Total number of batches                      ...      412
Average number of points per batch           ...       61
Average number of grid points per atom       ...      646
UseSFitting                                  ... on

GRIDX 2
-------
General Integration Accuracy     IntAcc      ... 4.020
Radial Grid Type                 RadialGrid  ... OptM3 with GC (2021)
Angular Grid (max. ang.)         AngularGrid ... 2 (Lebedev-110)
Angular grid pruning method      GridPruning ... 4 (adaptive)
Weight generation scheme         WeightScheme... Becke
Basis function cutoff            BFCut       ... 1.0000e-11
Integration weight cutoff        WCut        ... 1.0000e-14
Angular grids for H and He will be reduced by one unit
Partially contracted basis set               ... on
Rotationally invariant grid construction     ... off

Total number of grid points                  ...    60756
Total number of batches                      ...      967
Average number of points per batch           ...       62
Average number of grid points per atom       ...     1558
UseSFitting                                  ... on

GRIDX 3
-------
General Integration Accuracy     IntAcc      ... 4.338
Radial Grid Type                 RadialGrid  ... OptM3 with GC (2021)
Angular Grid (max. ang.)         AngularGrid ... 3 (Lebedev-194)
Angular grid pruning method      GridPruning ... 4 (adaptive)
Weight generation scheme         WeightScheme... Becke
Basis function cutoff            BFCut       ... 1.0000e-11
Integration weight cutoff        WCut        ... 1.0000e-14
Angular grids for H and He will be reduced by one unit
Partially contracted basis set               ... on
Rotationally invariant grid construction     ... off

Total number of grid points                  ...   135007
Total number of batches                      ...     2133
Average number of points per batch           ...       63
Average number of grid points per atom       ...     3462
UseSFitting                                  ... on

Time for X-Grid setup             =    5.177 sec

 re-compute Schwartz prescreening matrix in partically contracted basis (1) ...done (   0.159 sec)
--------------
SCF ITERATIONS
--------------
ITER       Energy         Delta-E        Max-DP      RMS-DP      [F,P]     Damp
               ***  Starting incremental Fock matrix formation  ***
  0  -1862.0857727744   0.000000000000 2.86722374  0.01269082  0.3341538 0.7000
  1  -1862.3936346369  -0.307861862509 2.35288344  0.01069908  0.1812550 0.7000
                               ***Turning on DIIS***
  2  -1862.5509658576  -0.157331220757 6.45049368  0.02650967  0.0811082 0.0000
  3  -1862.8214838270  -0.270517969397 1.19178871  0.00399474  0.0807568 0.0000
  4  -1862.8569394266  -0.035455599622 0.25280340  0.00131126  0.0085657 0.0000
  5  -1862.8581868340  -0.001247407371 0.12463961  0.00066035  0.0085213 0.0000
                      *** Initiating the SOSCF procedure ***
                           *** Shutting down DIIS ***
                      *** Re-Reading the Fockian *** 
                      *** Removing any level shift *** 
ITER      Energy       Delta-E        Grad      Rot      Max-DP    RMS-DP
  6  -1862.85854051  -0.0003536768  0.000915  0.000915  0.081815  0.000442
               *** Restarting incremental Fock matrix formation ***
  7  -1862.85843144   0.0001090690  0.000337  0.000842  2.391323  0.009784
  8  -1862.85848648  -0.0000550377  0.000261  0.000772  0.214732  0.001413
  9  -1862.85848840  -0.0000019218  0.000083  0.000147  0.147565  0.000871
 10  -1862.85849185  -0.0000034513  0.000021  0.000079  0.135408  0.000723
 11  -1862.85849212  -0.0000002682  0.000014  0.000066  0.185320  0.000461
 12  -1862.85849218  -0.0000000592  0.000006  0.000012  0.076592  0.000317
 13  -1862.85849215   0.0000000349  0.000005  0.000016  0.119353  0.000562
 14  -1862.85849232  -0.0000001762  0.000004  0.000008  0.074552  0.000267
                  ***Gradient check signals convergence***
              ***Rediagonalizing the Fockian in SOSCF/NRSCF***

               *****************************************************
               *                     SUCCESS                       *
               *           SCF CONVERGED AFTER  15 CYCLES          *
               *****************************************************

Old exchange energy                            =   -130.127184310 Eh
New exchange energy                            =   -130.126567834 Eh
Exchange energy change after final integration =      0.000616476 Eh
Total energy after final integration           =  -1862.857875758 Eh
Final COS-X integration done in                =   115.737 sec

----------------
TOTAL SCF ENERGY
----------------

Total Energy       :        -1862.85787576 Eh          -50690.93988 eV

Components:
Nuclear Repulsion  :         2313.36434929 Eh           62949.84425 eV
Electronic Energy  :        -4176.22222505 Eh         -113640.78413 eV
One Electron Energy:        -7177.59908289 Eh         -195312.40054 eV
Two Electron Energy:         3001.37685784 Eh           81671.61641 eV
Max COSX asymmetry :            0.00005236 Eh               0.00142 eV

Virial components:
Potential Energy   :        -3720.86796316 Eh         -101249.96473 eV
Kinetic Energy     :         1858.01008740 Eh           50559.02485 eV
Virial Ratio       :            2.00260913


DFT components:
N(Alpha)           :       95.000169295980 electrons
N(Beta)            :       95.000169295980 electrons
N(Total)           :      190.000338591960 electrons
E(X)               :      -55.546219845140 Eh       
E(C)               :       -3.160063096259 Eh       
E(XC)              :      -58.706282941399 Eh       
DFET-embed. en.    :        0.000000000000 Eh       

---------------
SCF CONVERGENCE
---------------

  Last Energy change         ...    8.7357e-08  Tolerance :   1.0000e-08
  Last MAX-Density change    ...    8.8818e-15  Tolerance :   1.0000e-07
  Last RMS-Density change    ...    3.9107e-17  Tolerance :   5.0000e-09
  Last Orbital Gradient      ...    1.6666e-06  Tolerance :   1.0000e-05
  Last Orbital Rotation      ...    1.1234e-05  Tolerance :   1.0000e-05

             **** THE GBW FILE WAS UPDATED (A.37.avtz.gbw) ****
             **** DENSITY A.37.avtz.scfp WAS UPDATED ****
             **** ENERGY FILE WAS UPDATED (A.37.avtz.en.tmp) ****
             **** THE GBW FILE WAS UPDATED (A.37.avtz.gbw) ****
             **** DENSITY A.37.avtz.scfp WAS UPDATED ****
----------------
ORBITAL ENERGIES
----------------

  NO   OCC          E(Eh)            E(eV) 
   0   2.0000    -103.509049     -2816.6244 
   1   2.0000     -90.860320     -2472.4350 
   2   2.0000     -19.909362      -541.7613 
   3   2.0000     -19.840278      -539.8814 
   4   2.0000     -19.838016      -539.8199 
   5   2.0000     -15.069398      -410.0592 
   6   2.0000     -15.066472      -409.9796 
   7   2.0000     -14.897398      -405.3788 
   8   2.0000     -10.869965      -295.7868 
   9   2.0000     -10.812029      -294.2103 
  10   2.0000     -10.796945      -293.7998 
  11   2.0000     -10.796194      -293.7794 
  12   2.0000     -10.771112      -293.0969 
  13   2.0000     -10.768695      -293.0311 
  14   2.0000     -10.765844      -292.9535 
  15   2.0000     -10.764389      -292.9139 
  16   2.0000     -10.761560      -292.8369 
  17   2.0000     -10.758939      -292.7656 
  18   2.0000     -10.757670      -292.7311 
  19   2.0000     -10.757527      -292.7272 
  20   2.0000     -10.756283      -292.6933 
  21   2.0000     -10.754632      -292.6484 
  22   2.0000     -10.754326      -292.6401 
  23   2.0000     -10.753166      -292.6085 
  24   2.0000     -10.056923      -273.6628 
  25   2.0000      -8.601650      -234.0628 
  26   2.0000      -7.630042      -207.6240 
  27   2.0000      -7.625653      -207.5046 
  28   2.0000      -7.625341      -207.4961 
  29   2.0000      -6.388359      -173.8361 
  30   2.0000      -6.386031      -173.7728 
  31   2.0000      -6.385011      -173.7450 
  32   2.0000      -1.196094       -32.5474 
  33   2.0000      -1.151181       -31.3252 
  34   2.0000      -1.132451       -30.8155 
  35   2.0000      -1.034682       -28.1551 
  36   2.0000      -1.007998       -27.4290 
  37   2.0000      -0.987063       -26.8593 
  38   2.0000      -0.950306       -25.8592 
  39   2.0000      -0.925969       -25.1969 
  40   2.0000      -0.893745       -24.3200 
  41   2.0000      -0.884036       -24.0558 
  42   2.0000      -0.856170       -23.2976 
  43   2.0000      -0.839971       -22.8568 
  44   2.0000      -0.833724       -22.6868 
  45   2.0000      -0.808679       -22.0053 
  46   2.0000      -0.772863       -21.0307 
  47   2.0000      -0.709082       -19.2951 
  48   2.0000      -0.677406       -18.4332 
  49   2.0000      -0.673832       -18.3359 
  50   2.0000      -0.660793       -17.9811 
  51   2.0000      -0.653661       -17.7870 
  52   2.0000      -0.630289       -17.1510 
  53   2.0000      -0.608937       -16.5700 
  54   2.0000      -0.576813       -15.6959 
  55   2.0000      -0.554340       -15.0843 
  56   2.0000      -0.542604       -14.7650 
  57   2.0000      -0.522885       -14.2284 
  58   2.0000      -0.506392       -13.7796 
  59   2.0000      -0.497019       -13.5246 
  60   2.0000      -0.489631       -13.3235 
  61   2.0000      -0.482265       -13.1231 
  62   2.0000      -0.474216       -12.9041 
  63   2.0000      -0.472586       -12.8597 
  64   2.0000      -0.464425       -12.6377 
  65   2.0000      -0.450276       -12.2526 
  66   2.0000      -0.443292       -12.0626 
  67   2.0000      -0.441554       -12.0153 
  68   2.0000      -0.437817       -11.9136 
  69   2.0000      -0.434803       -11.8316 
  70   2.0000      -0.409357       -11.1392 
  71   2.0000      -0.406548       -11.0627 
  72   2.0000      -0.402685       -10.9576 
  73   2.0000      -0.393895       -10.7184 
  74   2.0000      -0.388114       -10.5611 
  75   2.0000      -0.384412       -10.4604 
  76   2.0000      -0.381262       -10.3747 
  77   2.0000      -0.367936       -10.0121 
  78   2.0000      -0.366019        -9.9599 
  79   2.0000      -0.356181        -9.6922 
  80   2.0000      -0.323440        -8.8012 
  81   2.0000      -0.318986        -8.6800 
  82   2.0000      -0.316489        -8.6121 
  83   2.0000      -0.295759        -8.0480 
  84   2.0000      -0.290676        -7.9097 
  85   2.0000      -0.281401        -7.6573 
  86   2.0000      -0.272904        -7.4261 
  87   2.0000      -0.258774        -7.0416 
  88   2.0000      -0.247152        -6.7253 
  89   2.0000      -0.237377        -6.4594 
  90   2.0000      -0.222347        -6.0504 
  91   2.0000      -0.215057        -5.8520 
  92   2.0000      -0.206681        -5.6241 
  93   2.0000      -0.192678        -5.2430 
  94   2.0000      -0.172217        -4.6863 
  95   0.0000       0.069272         1.8850 
  96   0.0000       0.075111         2.0439 
  97   0.0000       0.084753         2.3063 
  98   0.0000       0.087727         2.3872 
  99   0.0000       0.092494         2.5169 
 100   0.0000       0.095135         2.5888 
 101   0.0000       0.104461         2.8425 
 102   0.0000       0.106275         2.8919 
 103   0.0000       0.110057         2.9948 
 104   0.0000       0.114688         3.1208 
 105   0.0000       0.117170         3.1883 
 106   0.0000       0.123626         3.3640 
 107   0.0000       0.127636         3.4732 
 108   0.0000       0.128496         3.4966 
 109   0.0000       0.132024         3.5926 
 110   0.0000       0.138527         3.7695 
 111   0.0000       0.140030         3.8104 
 112   0.0000       0.142981         3.8907 
 113   0.0000       0.147612         4.0167 
 114   0.0000       0.148341         4.0366 
 115   0.0000       0.151587         4.1249 
 116   0.0000       0.152497         4.1497 
 117   0.0000       0.156666         4.2631 
 118   0.0000       0.158373         4.3095 
 119   0.0000       0.160431         4.3656 
 120   0.0000       0.163864         4.4590 
 121   0.0000       0.166277         4.5246 
 122   0.0000       0.168753         4.5920 
 123   0.0000       0.169817         4.6209 
 124   0.0000       0.172984         4.7071 
 125   0.0000       0.173912         4.7324 
 126   0.0000       0.177351         4.8260 
 127   0.0000       0.178200         4.8491 
 128   0.0000       0.182217         4.9584 
 129   0.0000       0.185166         5.0386 
 130   0.0000       0.187591         5.1046 
 131   0.0000       0.190260         5.1772 
 132   0.0000       0.193633         5.2690 
 133   0.0000       0.196816         5.3556 
 134   0.0000       0.197846         5.3837 
 135   0.0000       0.199719         5.4346 
 136   0.0000       0.202305         5.5050 
 137   0.0000       0.204164         5.5556 
 138   0.0000       0.205668         5.5965 
 139   0.0000       0.209148         5.6912 
 140   0.0000       0.209799         5.7089 
 141   0.0000       0.212334         5.7779 
 142   0.0000       0.216681         5.8962 
 143   0.0000       0.217372         5.9150 
 144   0.0000       0.222641         6.0584 
 145   0.0000       0.224907         6.1200 
 146   0.0000       0.227308         6.1854 
 147   0.0000       0.231541         6.3006 
 148   0.0000       0.233782         6.3615 
 149   0.0000       0.234490         6.3808 
 150   0.0000       0.235978         6.4213 
 151   0.0000       0.236938         6.4474 
 152   0.0000       0.241278         6.5655 
 153   0.0000       0.244365         6.6495 
 154   0.0000       0.246300         6.7022 
 155   0.0000       0.250759         6.8235 
 156   0.0000       0.255301         6.9471 
 157   0.0000       0.257360         7.0031 
 158   0.0000       0.258757         7.0411 
 159   0.0000       0.259980         7.0744 
 160   0.0000       0.266322         7.2470 
 161   0.0000       0.272758         7.4221 
 162   0.0000       0.273380         7.4391 
 163   0.0000       0.274685         7.4746 
 164   0.0000       0.277442         7.5496 
 165   0.0000       0.281050         7.6478 
 166   0.0000       0.282689         7.6924 
 167   0.0000       0.283426         7.7124 
 168   0.0000       0.289836         7.8868 
 169   0.0000       0.290870         7.9150 
 170   0.0000       0.292166         7.9502 
 171   0.0000       0.293261         7.9800 
 172   0.0000       0.295139         8.0311 
 173   0.0000       0.296714         8.0740 
 174   0.0000       0.299664         8.1543 
 175   0.0000       0.301538         8.2053 
 176   0.0000       0.307545         8.3687 
 177   0.0000       0.309172         8.4130 
 178   0.0000       0.310068         8.4374 
 179   0.0000       0.312088         8.4924 
 180   0.0000       0.314512         8.5583 
 181   0.0000       0.317708         8.6453 
 182   0.0000       0.318635         8.6705 
 183   0.0000       0.320952         8.7336 
 184   0.0000       0.323917         8.8142 
 185   0.0000       0.324529         8.8309 
 186   0.0000       0.328043         8.9265 
 187   0.0000       0.331301         9.0152 
 188   0.0000       0.334869         9.1122 
 189   0.0000       0.335708         9.1351 
 190   0.0000       0.339582         9.2405 
 191   0.0000       0.340504         9.2656 
 192   0.0000       0.343084         9.3358 
 193   0.0000       0.346113         9.4182 
 194   0.0000       0.349771         9.5177 
 195   0.0000       0.351930         9.5765 
 196   0.0000       0.352562         9.5937 
 197   0.0000       0.355043         9.6612 
 198   0.0000       0.356777         9.7084 
 199   0.0000       0.358105         9.7445 
 200   0.0000       0.360288         9.8039 
 201   0.0000       0.361026         9.8240 
 202   0.0000       0.365776         9.9533 
 203   0.0000       0.366335         9.9685 
 204   0.0000       0.368141        10.0176 
 205   0.0000       0.369371        10.0511 
 206   0.0000       0.372654        10.1404 
 207   0.0000       0.374379        10.1874 
 208   0.0000       0.375900        10.2287 
 209   0.0000       0.379371        10.3232 
 210   0.0000       0.380737        10.3604 
 211   0.0000       0.384881        10.4731 
 212   0.0000       0.385788        10.4978 
 213   0.0000       0.388389        10.5686 
 214   0.0000       0.389920        10.6103 
 215   0.0000       0.391936        10.6651 
 216   0.0000       0.394973        10.7478 
 217   0.0000       0.395899        10.7730 
 218   0.0000       0.398814        10.8523 
 219   0.0000       0.402811        10.9611 
 220   0.0000       0.404492        11.0068 
 221   0.0000       0.406259        11.0549 
 222   0.0000       0.409808        11.1514 
 223   0.0000       0.411546        11.1987 
 224   0.0000       0.414566        11.2809 
 225   0.0000       0.417452        11.3594 
 226   0.0000       0.418807        11.3963 
 227   0.0000       0.423704        11.5296 
 228   0.0000       0.426975        11.6186 
 229   0.0000       0.427101        11.6220 
 230   0.0000       0.432252        11.7622 
 231   0.0000       0.433508        11.7963 
 232   0.0000       0.435996        11.8640 
 233   0.0000       0.439417        11.9572 
 234   0.0000       0.441283        12.0079 
 235   0.0000       0.443754        12.0752 
 236   0.0000       0.447426        12.1751 
 237   0.0000       0.448034        12.1916 
 238   0.0000       0.451202        12.2778 
 239   0.0000       0.454779        12.3752 
 240   0.0000       0.459850        12.5132 
 241   0.0000       0.462559        12.5869 
 242   0.0000       0.464455        12.6385 
 243   0.0000       0.464760        12.6468 
 244   0.0000       0.467455        12.7201 
 245   0.0000       0.470333        12.7984 
 246   0.0000       0.472122        12.8471 
 247   0.0000       0.473555        12.8861 
 248   0.0000       0.476023        12.9532 
 249   0.0000       0.477205        12.9854 
 250   0.0000       0.482685        13.1345 
 251   0.0000       0.485299        13.2057 
 252   0.0000       0.486550        13.2397 
 253   0.0000       0.489851        13.3295 
 254   0.0000       0.490961        13.3597 
 255   0.0000       0.495124        13.4730 
 256   0.0000       0.495286        13.4774 
 257   0.0000       0.499832        13.6011 
 258   0.0000       0.501967        13.6592 
 259   0.0000       0.504659        13.7325 
 260   0.0000       0.507305        13.8045 
 261   0.0000       0.508456        13.8358 
 262   0.0000       0.510965        13.9041 
 263   0.0000       0.515636        14.0312 
 264   0.0000       0.516706        14.0603 
 265   0.0000       0.519653        14.1405 
 266   0.0000       0.520251        14.1568 
 267   0.0000       0.521854        14.2004 
 268   0.0000       0.524816        14.2810 
 269   0.0000       0.525969        14.3123 
 270   0.0000       0.529449        14.4070 
 271   0.0000       0.531244        14.4559 
 272   0.0000       0.532751        14.4969 
 273   0.0000       0.534261        14.5380 
 274   0.0000       0.537624        14.6295 
 275   0.0000       0.539331        14.6759 
 276   0.0000       0.540550        14.7091 
 277   0.0000       0.543867        14.7994 
 278   0.0000       0.547093        14.8872 
 279   0.0000       0.548951        14.9377 
 280   0.0000       0.549570        14.9546 
 281   0.0000       0.550759        14.9869 
 282   0.0000       0.553811        15.0700 
 283   0.0000       0.555241        15.1089 
 284   0.0000       0.558857        15.2073 
 285   0.0000       0.559775        15.2323 
 286   0.0000       0.565832        15.3971 
 287   0.0000       0.566981        15.4283 
 288   0.0000       0.567223        15.4349 
 289   0.0000       0.571998        15.5648 
 290   0.0000       0.572518        15.5790 
 291   0.0000       0.573748        15.6125 
 292   0.0000       0.575733        15.6665 
 293   0.0000       0.577443        15.7130 
 294   0.0000       0.579876        15.7792 
 295   0.0000       0.582224        15.8431 
 296   0.0000       0.584783        15.9128 
 297   0.0000       0.586928        15.9711 
 298   0.0000       0.587107        15.9760 
 299   0.0000       0.589419        16.0389 
 300   0.0000       0.591756        16.1025 
 301   0.0000       0.593938        16.1619 
 302   0.0000       0.597057        16.2468 
 303   0.0000       0.598770        16.2933 
 304   0.0000       0.602716        16.4007 
 305   0.0000       0.603658        16.4264 
 306   0.0000       0.606887        16.5142 
 307   0.0000       0.608597        16.5608 
 308   0.0000       0.612742        16.6736 
 309   0.0000       0.614515        16.7218 
 310   0.0000       0.616221        16.7682 
 311   0.0000       0.618451        16.8289 
 312   0.0000       0.620444        16.8832 
 313   0.0000       0.623869        16.9763 
 314   0.0000       0.629808        17.1379 
 315   0.0000       0.633945        17.2505 
 316   0.0000       0.634887        17.2762 
 317   0.0000       0.638010        17.3611 
 318   0.0000       0.639252        17.3949 
 319   0.0000       0.644049        17.5255 
 320   0.0000       0.644674        17.5425 
 321   0.0000       0.647897        17.6302 
 322   0.0000       0.650175        17.6922 
 323   0.0000       0.652356        17.7515 
 324   0.0000       0.655581        17.8393 
 325   0.0000       0.660161        17.9639 
 326   0.0000       0.662425        18.0255 
 327   0.0000       0.667496        18.1635 
 328   0.0000       0.669836        18.2272 
 329   0.0000       0.673412        18.3245 
 330   0.0000       0.677932        18.4475 
 331   0.0000       0.678436        18.4612 
 332   0.0000       0.680925        18.5289 
 333   0.0000       0.684163        18.6170 
 334   0.0000       0.688227        18.7276 
 335   0.0000       0.691819        18.8254 
 336   0.0000       0.694289        18.8926 
 337   0.0000       0.695070        18.9138 
 338   0.0000       0.697559        18.9816 
 339   0.0000       0.700480        19.0610 
 340   0.0000       0.703633        19.1468 
 341   0.0000       0.706665        19.2293 
 342   0.0000       0.714088        19.4313 
 343   0.0000       0.718626        19.5548 
 344   0.0000       0.720532        19.6067 
 345   0.0000       0.724350        19.7106 
 346   0.0000       0.726106        19.7584 
 347   0.0000       0.726834        19.7782 
 348   0.0000       0.732616        19.9355 
 349   0.0000       0.734165        19.9777 
 350   0.0000       0.737875        20.0786 
 351   0.0000       0.741748        20.1840 
 352   0.0000       0.743164        20.2225 
 353   0.0000       0.743853        20.2413 
 354   0.0000       0.747067        20.3287 
 355   0.0000       0.751110        20.4387 
 356   0.0000       0.757716        20.6185 
 357   0.0000       0.758393        20.6369 
 358   0.0000       0.762889        20.7593 
 359   0.0000       0.766063        20.8456 
 360   0.0000       0.770338        20.9620 
 361   0.0000       0.772213        21.0130 
 362   0.0000       0.774238        21.0681 
 363   0.0000       0.778156        21.1747 
 364   0.0000       0.781557        21.2672 
 365   0.0000       0.782814        21.3015 
 366   0.0000       0.785451        21.3732 
 367   0.0000       0.789356        21.4795 
 368   0.0000       0.792127        21.5549 
 369   0.0000       0.795529        21.6475 
 370   0.0000       0.799328        21.7508 
 371   0.0000       0.802447        21.8357 
 372   0.0000       0.807079        21.9617 
 373   0.0000       0.808423        21.9983 
 374   0.0000       0.812107        22.0986 
 375   0.0000       0.814193        22.1553 
 376   0.0000       0.819195        22.2914 
 377   0.0000       0.821296        22.3486 
 378   0.0000       0.823728        22.4148 
 379   0.0000       0.828504        22.5448 
 380   0.0000       0.831852        22.6358 
 381   0.0000       0.836901        22.7732 
 382   0.0000       0.838870        22.8268 
 383   0.0000       0.840149        22.8616 
 384   0.0000       0.846027        23.0216 
 385   0.0000       0.847802        23.0699 
 386   0.0000       0.850257        23.1367 
 387   0.0000       0.855996        23.2928 
 388   0.0000       0.858649        23.3650 
 389   0.0000       0.861612        23.4457 
 390   0.0000       0.863553        23.4985 
 391   0.0000       0.863867        23.5070 
 392   0.0000       0.866230        23.5713 
 393   0.0000       0.874790        23.8043 
 394   0.0000       0.878457        23.9040 
 395   0.0000       0.880675        23.9644 
 396   0.0000       0.881729        23.9931 
 397   0.0000       0.885929        24.1074 
 398   0.0000       0.888645        24.1813 
 399   0.0000       0.893389        24.3104 
 400   0.0000       0.895813        24.3763 
 401   0.0000       0.897462        24.4212 
 402   0.0000       0.899787        24.4845 
 403   0.0000       0.901230        24.5237 
 404   0.0000       0.904641        24.6165 
 405   0.0000       0.909171        24.7398 
 406   0.0000       0.911069        24.7915 
 407   0.0000       0.913866        24.8675 
 408   0.0000       0.918635        24.9973 
 409   0.0000       0.921920        25.0867 
 410   0.0000       0.924480        25.1564 
 411   0.0000       0.925866        25.1941 
 412   0.0000       0.929833        25.3021 
 413   0.0000       0.935459        25.4551 
 414   0.0000       0.937032        25.4979 
 415   0.0000       0.939586        25.5674 
 416   0.0000       0.941979        25.6325 
 417   0.0000       0.943849        25.6834 
 418   0.0000       0.947005        25.7693 
 419   0.0000       0.950261        25.8579 
 420   0.0000       0.952283        25.9129 
 421   0.0000       0.955200        25.9923 
 422   0.0000       0.956705        26.0333 
 423   0.0000       0.959614        26.1124 
 424   0.0000       0.965359        26.2688 
 425   0.0000       0.965825        26.2814 
 426   0.0000       0.970856        26.4183 
 427   0.0000       0.973326        26.4855 
 428   0.0000       0.975358        26.5409 
 429   0.0000       0.979904        26.6646 
 430   0.0000       0.982415        26.7329 
 431   0.0000       0.983791        26.7703 
 432   0.0000       0.984423        26.7875 
 433   0.0000       0.987360        26.8674 
 434   0.0000       0.992366        27.0036 
 435   0.0000       0.993638        27.0383 
 436   0.0000       0.996008        27.1027 
 437   0.0000       0.997813        27.1519 
 438   0.0000       0.999680        27.2027 
 439   0.0000       1.003139        27.2968 
 440   0.0000       1.006886        27.3988 
 441   0.0000       1.008786        27.4505 
 442   0.0000       1.015204        27.6251 
 443   0.0000       1.016077        27.6489 
 444   0.0000       1.018187        27.7063 
 445   0.0000       1.024428        27.8761 
 446   0.0000       1.028310        27.9817 
 447   0.0000       1.030193        28.0330 
 448   0.0000       1.031019        28.0555 
 449   0.0000       1.033388        28.1199 
 450   0.0000       1.035778        28.1849 
 451   0.0000       1.036713        28.2104 
 452   0.0000       1.040838        28.3226 
 453   0.0000       1.047217        28.4962 
 454   0.0000       1.049090        28.5472 
 455   0.0000       1.054891        28.7050 
 456   0.0000       1.055770        28.7289 
 457   0.0000       1.057833        28.7851 
 458   0.0000       1.063657        28.9436 
 459   0.0000       1.065181        28.9850 
 460   0.0000       1.066421        29.0188 
 461   0.0000       1.068130        29.0653 
 462   0.0000       1.070192        29.1214 
 463   0.0000       1.074521        29.2392 
 464   0.0000       1.075703        29.2714 
 465   0.0000       1.080269        29.3956 
 466   0.0000       1.082279        29.4503 
 467   0.0000       1.083313        29.4785 
 468   0.0000       1.087514        29.5927 
 469   0.0000       1.089760        29.6539 
 470   0.0000       1.093979        29.7687 
 471   0.0000       1.095744        29.8167 
 472   0.0000       1.099054        29.9068 
 473   0.0000       1.100985        29.9593 
 474   0.0000       1.103428        30.0258 
 475   0.0000       1.104698        30.0604 
 476   0.0000       1.106980        30.1225 
 477   0.0000       1.109342        30.1867 
 478   0.0000       1.114017        30.3139 
 479   0.0000       1.114723        30.3331 
 480   0.0000       1.118815        30.4445 
 481   0.0000       1.122390        30.5418 
 482   0.0000       1.124012        30.5859 
 483   0.0000       1.125939        30.6384 
 484   0.0000       1.127268        30.6745 
 485   0.0000       1.132180        30.8082 
 486   0.0000       1.133147        30.8345 
 487   0.0000       1.138067        30.9684 
 488   0.0000       1.142415        31.0867 
 489   0.0000       1.144199        31.1352 
 490   0.0000       1.147496        31.2250 
 491   0.0000       1.150792        31.3146 
 492   0.0000       1.151611        31.3369 
 493   0.0000       1.152553        31.3626 
 494   0.0000       1.158203        31.5163 
 495   0.0000       1.163012        31.6472 
 496   0.0000       1.163651        31.6646 
 497   0.0000       1.165141        31.7051 
 498   0.0000       1.167185        31.7607 
 499   0.0000       1.170464        31.8499 
 500   0.0000       1.172015        31.8921 
 501   0.0000       1.174639        31.9636 
 502   0.0000       1.177904        32.0524 
 503   0.0000       1.178769        32.0759 
 504   0.0000       1.183728        32.2109 
 505   0.0000       1.186301        32.2809 
 506   0.0000       1.188613        32.3438 
 507   0.0000       1.191473        32.4216 
 508   0.0000       1.197656        32.5899 
 509   0.0000       1.198987        32.6261 
 510   0.0000       1.199513        32.6404 
 511   0.0000       1.201514        32.6949 
 512   0.0000       1.203221        32.7413 
 513   0.0000       1.205774        32.8108 
 514   0.0000       1.206446        32.8291 
 515   0.0000       1.208235        32.8778 
 516   0.0000       1.213737        33.0275 
 517   0.0000       1.215575        33.0775 
 518   0.0000       1.217294        33.1243 
 519   0.0000       1.223065        33.2813 
 520   0.0000       1.227403        33.3993 
 521   0.0000       1.229765        33.4636 
 522   0.0000       1.232219        33.5304 
 523   0.0000       1.234573        33.5944 
 524   0.0000       1.238446        33.6998 
 525   0.0000       1.239293        33.7229 
 526   0.0000       1.245032        33.8790 
 527   0.0000       1.247685        33.9512 
 528   0.0000       1.251009        34.0417 
 529   0.0000       1.252550        34.0836 
 530   0.0000       1.257198        34.2101 
 531   0.0000       1.260924        34.3115 
 532   0.0000       1.264178        34.4000 
 533   0.0000       1.269495        34.5447 
 534   0.0000       1.270570        34.5740 
 535   0.0000       1.273273        34.6475 
 536   0.0000       1.274653        34.6851 
 537   0.0000       1.280124        34.8339 
 538   0.0000       1.284588        34.9554 
 539   0.0000       1.285403        34.9776 
 540   0.0000       1.290474        35.1156 
 541   0.0000       1.294928        35.2368 
 542   0.0000       1.300450        35.3870 
 543   0.0000       1.301958        35.4281 
 544   0.0000       1.304062        35.4853 
 545   0.0000       1.308009        35.5927 
 546   0.0000       1.309469        35.6325 
 547   0.0000       1.312356        35.7110 
 548   0.0000       1.315679        35.8015 
 549   0.0000       1.317558        35.8526 
 550   0.0000       1.323803        36.0225 
 551   0.0000       1.326468        36.0950 
 552   0.0000       1.331890        36.2426 
 553   0.0000       1.334517        36.3141 
 554   0.0000       1.336186        36.3595 
 555   0.0000       1.341271        36.4978 
 556   0.0000       1.343544        36.5597 
 557   0.0000       1.346765        36.6473 
 558   0.0000       1.350521        36.7495 
 559   0.0000       1.357091        36.9283 
 560   0.0000       1.361496        37.0482 
 561   0.0000       1.362940        37.0875 
 562   0.0000       1.365027        37.1443 
 563   0.0000       1.368787        37.2466 
 564   0.0000       1.374297        37.3965 
 565   0.0000       1.377853        37.4933 
 566   0.0000       1.381059        37.5805 
 567   0.0000       1.384719        37.6801 
 568   0.0000       1.387952        37.7681 
 569   0.0000       1.390863        37.8473 
 570   0.0000       1.394828        37.9552 
 571   0.0000       1.397369        38.0244 
 572   0.0000       1.402648        38.1680 
 573   0.0000       1.408001        38.3137 
 574   0.0000       1.413045        38.4509 
 575   0.0000       1.416099        38.5340 
 576   0.0000       1.422487        38.7078 
 577   0.0000       1.422822        38.7170 
 578   0.0000       1.425377        38.7865 
 579   0.0000       1.426705        38.8226 
 580   0.0000       1.434333        39.0302 
 581   0.0000       1.437113        39.1058 
 582   0.0000       1.441034        39.2125 
 583   0.0000       1.442357        39.2485 
 584   0.0000       1.445410        39.3316 
 585   0.0000       1.453111        39.5412 
 586   0.0000       1.455408        39.6037 
 587   0.0000       1.457708        39.6662 
 588   0.0000       1.461605        39.7723 
 589   0.0000       1.468199        39.9517 
 590   0.0000       1.469308        39.9819 
 591   0.0000       1.474104        40.1124 
 592   0.0000       1.476684        40.1826 
 593   0.0000       1.480517        40.2869 
 594   0.0000       1.482811        40.3493 
 595   0.0000       1.486538        40.4508 
 596   0.0000       1.492094        40.6019 
 597   0.0000       1.495995        40.7081 
 598   0.0000       1.497780        40.7567 
 599   0.0000       1.499683        40.8084 
 600   0.0000       1.507687        41.0262 
 601   0.0000       1.509326        41.0709 
 602   0.0000       1.511331        41.1254 
 603   0.0000       1.519402        41.3450 
 604   0.0000       1.520992        41.3883 
 605   0.0000       1.524239        41.4767 
 606   0.0000       1.527924        41.5769 
 607   0.0000       1.531922        41.6857 
 608   0.0000       1.533497        41.7286 
 609   0.0000       1.535213        41.7753 
 610   0.0000       1.541013        41.9331 
 611   0.0000       1.542932        41.9853 
 612   0.0000       1.547551        42.1110 
 613   0.0000       1.553778        42.2805 
 614   0.0000       1.557024        42.3688 
 615   0.0000       1.561667        42.4951 
 616   0.0000       1.564928        42.5839 
 617   0.0000       1.566185        42.6180 
 618   0.0000       1.569449        42.7069 
 619   0.0000       1.575319        42.8666 
 620   0.0000       1.578248        42.9463 
 621   0.0000       1.581479        43.0342 
 622   0.0000       1.588053        43.2131 
 623   0.0000       1.592295        43.3286 
 624   0.0000       1.594872        43.3987 
 625   0.0000       1.595927        43.4274 
 626   0.0000       1.601106        43.5683 
 627   0.0000       1.604197        43.6524 
 628   0.0000       1.608450        43.7682 
 629   0.0000       1.615605        43.9629 
 630   0.0000       1.618663        44.0461 
 631   0.0000       1.620805        44.1043 
 632   0.0000       1.622470        44.1497 
 633   0.0000       1.624159        44.1956 
 634   0.0000       1.628222        44.3062 
 635   0.0000       1.633298        44.4443 
 636   0.0000       1.640581        44.6425 
 637   0.0000       1.643474        44.7212 
 638   0.0000       1.644629        44.7526 
 639   0.0000       1.649426        44.8832 
 640   0.0000       1.655915        45.0597 
 641   0.0000       1.659933        45.1691 
 642   0.0000       1.661176        45.2029 
 643   0.0000       1.666671        45.3524 
 644   0.0000       1.670868        45.4666 
 645   0.0000       1.674953        45.5778 
 646   0.0000       1.679133        45.6915 
 647   0.0000       1.686413        45.8896 
 648   0.0000       1.690766        46.0081 
 649   0.0000       1.692963        46.0679 
 650   0.0000       1.697957        46.2038 
 651   0.0000       1.699706        46.2514 
[...]
      px      :     0.085045
      py      :     0.079821
      dz2     :     0.061860  d :     0.218112
      dxz     :     0.051019
      dyz     :     0.060746
      dx2y2   :     0.017343
      dxy     :     0.027144
 31 H s       :     0.618338  s :     0.618338
      pz      :     0.086560  p :     0.294057
      px      :     0.083239
      py      :     0.124259
      dz2     :     0.028579  d :     0.224363
      dxz     :     0.022651
      dyz     :     0.061307
      dx2y2   :     0.043297
      dxy     :     0.068530
 32 H s       :     0.627636  s :     0.627636
      pz      :     0.087057  p :     0.310106
      px      :     0.113794
      py      :     0.109255
      dz2     :     0.015775  d :     0.224133
      dxz     :     0.045272
      dyz     :     0.042984
      dx2y2   :     0.069744
      dxy     :     0.050358
 33 H s       :     0.627455  s :     0.627455
      pz      :     0.113750  p :     0.306943
      px      :     0.081060
      py      :     0.112133
      dz2     :     0.071436  d :     0.226882
      dxz     :     0.026039
      dyz     :     0.043626
      dx2y2   :     0.028490
      dxy     :     0.057291
 34 H s       :     0.633443  s :     0.633443
      pz      :     0.132729  p :     0.304352
      px      :     0.082422
      py      :     0.089200
      dz2     :     0.065755  d :     0.222255
      dxz     :     0.057549
      dyz     :     0.064601
      dx2y2   :     0.006740
      dxy     :     0.027611
 35 H s       :     0.655315  s :     0.655315
      pz      :     0.089923  p :     0.299282
      px      :     0.107546
      py      :     0.101812
      dz2     :     0.037746  d :     0.214935
      dxz     :     0.036919
      dyz     :     0.040319
      dx2y2   :     0.059090
      dxy     :     0.040861
 36 H s       :     0.671119  s :     0.671119
      pz      :     0.115818  p :     0.300759
      px      :     0.082653
      py      :     0.102289
      dz2     :     0.051440  d :     0.213136
      dxz     :     0.049563
      dyz     :     0.050606
      dx2y2   :     0.031971
      dxy     :     0.029557
 37 H s       :     0.674559  s :     0.674559
      pz      :     0.088575  p :     0.307795
      px      :     0.132943
      py      :     0.086277
      dz2     :     0.027614  d :     0.213956
      dxz     :     0.064700
      dyz     :     0.011074
      dx2y2   :     0.045404
      dxy     :     0.065164
 38 H s       :     0.669818  s :     0.669818
      pz      :     0.093197  p :     0.295177
      px      :     0.100397
      py      :     0.101584
      dz2     :     0.040474  d :     0.211498
      dxz     :     0.033694
      dyz     :     0.040166
      dx2y2   :     0.056649
      dxy     :     0.040516


                      *****************************
                      * MAYER POPULATION ANALYSIS *
                      *****************************

  NA   - Mulliken gross atomic population
  ZA   - Total nuclear charge
  QA   - Mulliken gross atomic charge
  VA   - Mayer's total valence
  BVA  - Mayer's bonded valence
  FA   - Mayer's free valence

  ATOM       NA         ZA         QA         VA         BVA        FA
  0 C      5.8814     6.0000     0.1186     4.0184     4.0184     0.0000
  1 C      5.0140     6.0000     0.9860     2.6951     2.6951    -0.0000
  2 Cl    17.5340    17.0000    -0.5340     0.4168     0.4168     0.0000
  3 C      6.6709     6.0000    -0.6709     2.4150     2.4150     0.0000
  4 H      0.5799     1.0000     0.4201     0.8501     0.8501     0.0000
  5 C      6.7103     6.0000    -0.7103     2.8323     2.8323     0.0000
  6 C      4.3450     6.0000     1.6550     0.1390     0.1390     0.0000
  7 C      7.1687     6.0000    -1.1687     3.1160     3.1160     0.0000
  8 S     13.9364    16.0000     2.0636     4.7274     4.7274    -0.0000
  9 O      9.0470     8.0000    -1.0470     1.3877     1.3877     0.0000
 10 O      9.0096     8.0000    -1.0096     1.3160     1.3160    -0.0000
 11 N      8.1242     7.0000    -1.1242     2.4889     2.4889     0.0000
 12 H      0.8777     1.0000     0.1223     1.0845     1.0845    -0.0000
 13 H      0.8530     1.0000     0.1470     1.1513     1.1513     0.0000
 14 H      0.8155     1.0000     0.1845     1.1952     1.1952     0.0000
 15 C      5.6451     6.0000     0.3549     3.3471     3.3471    -0.0000
 16 N      6.6846     7.0000     0.3154     1.9694     1.9694    -0.0000
 17 O      9.2431     8.0000    -1.2431     0.8534     0.8534    -0.0000
 18 N      7.4797     7.0000    -0.4797     2.1066     2.1066     0.0000
 19 C      5.7198     6.0000     0.2802     3.1264     3.1264    -0.0000
 20 C      6.6112     6.0000    -0.6112     3.3640     3.3640    -0.0000
 21 C      5.3215     6.0000     0.6785     1.6404     1.6404    -0.0000
 22 C      4.8460     6.0000     1.1540     1.0397     1.0397     0.0000
 23 C      7.1334     6.0000    -1.1334     3.6317     3.6317     0.0000
 24 C      6.7837     6.0000    -0.7837     2.2010     2.2010     0.0000
 25 C      6.5744     6.0000    -0.5744     2.8458     2.8458    -0.0000
 26 C      6.4804     6.0000    -0.4804     2.8248     2.8248     0.0000
 27 C      7.2123     6.0000    -1.2123     2.5818     2.5818     0.0000
 28 H      0.9927     1.0000     0.0073     1.1703     1.1703    -0.0000
 29 H      0.7765     1.0000     0.2235     1.0671     1.0671    -0.0000
 30 H      0.7447     1.0000     0.2553     1.0006     1.0006    -0.0000
 31 H      0.7457     1.0000     0.2543     0.9449     0.9449    -0.0000
 32 H      0.5922     1.0000     0.4078     0.8527     0.8527     0.0000
 33 H      0.7464     1.0000     0.2536     1.0650     1.0650     0.0000
 34 H      0.7897     1.0000     0.2103     1.0928     1.0928     0.0000
 35 H      0.5394     1.0000     0.4606     0.7529     0.7529     0.0000
 36 H      0.5746     1.0000     0.4254     0.7513     0.7513     0.0000
 37 H      0.2986     1.0000     0.7014     0.1412     0.1412    -0.0000
 38 H      0.8967     1.0000     0.1033     1.2936     1.2936    -0.0000

  Mayer bond orders larger than 0.100000
B(  0-C ,  1-C ) :   1.3351 B(  0-C ,  2-Cl) :   0.2892 B(  0-C ,  3-C ) :  -0.1221 
B(  0-C ,  6-C ) :   0.2213 B(  0-C ,  7-C ) :   1.5325 B(  0-C ,  8-S ) :   0.5542 
B(  0-C , 10-O ) :  -0.2497 B(  0-C , 11-N ) :   0.1977 B(  0-C , 13-H ) :  -0.1416 
B(  0-C , 20-C ) :   0.1337 B(  0-C , 21-C ) :  -0.1343 B(  0-C , 22-C ) :  -0.1175 
B(  0-C , 25-C ) :   0.2369 B(  0-C , 30-H ) :   0.1217 B(  0-C , 37-H ) :  -0.2385 
B(  0-C , 38-H ) :   0.1432 B(  1-C ,  3-C ) :   1.0152 B(  1-C ,  5-C ) :   0.1945 
B(  1-C ,  6-C ) :  -0.1738 B(  1-C ,  7-C ) :   0.1674 B(  1-C ,  8-S ) :   0.1750 
B(  1-C ,  9-O ) :   0.1035 B(  1-C , 15-C ) :   0.1596 B(  1-C , 20-C ) :  -0.1370 
B(  1-C , 22-C ) :   0.2386 B(  1-C , 37-H ) :   0.1204 B(  2-Cl,  3-C ) :   0.2962 
B(  2-Cl,  5-C ) :   0.1055 B(  2-Cl,  7-C ) :  -0.1200 B(  3-C ,  4-H ) :   0.7970 
B(  3-C ,  5-C ) :   1.0178 B(  3-C ,  6-C ) :  -0.1780 B(  3-C , 14-H ) :  -0.2056 
B(  3-C , 21-C ) :   0.3787 B(  3-C , 22-C ) :  -0.2866 B(  3-C , 24-C ) :  -0.2197 
B(  3-C , 25-C ) :  -0.1828 B(  3-C , 26-C ) :  -0.1311 B(  3-C , 27-C ) :   0.8016 
B(  3-C , 30-H ) :  -0.1122 B(  3-C , 37-H ) :   0.1514 B(  3-C , 38-H ) :  -0.3841 
B(  4-H ,  7-C ) :   0.1039 B(  4-H , 22-C ) :   0.4046 B(  4-H , 27-C ) :  -0.3518 
B(  5-C ,  6-C ) :   0.4014 B(  5-C ,  7-C ) :  -0.5110 B(  5-C , 14-H ) :   1.1754 
B(  5-C , 15-C ) :   0.5374 B(  5-C , 22-C ) :  -0.1738 B(  5-C , 24-C ) :   0.3015 
B(  5-C , 25-C ) :  -0.2039 B(  5-C , 26-C ) :  -0.1545 B(  5-C , 27-C ) :   0.1604 
B(  6-C ,  7-C ) :   0.2096 B(  6-C , 13-H ) :  -0.1585 B(  6-C , 14-H ) :  -0.1291 
B(  6-C , 15-C ) :   0.3650 B(  6-C , 16-N ) :  -0.1105 B(  6-C , 17-O ) :  -0.1779 
B(  6-C , 24-C ) :  -0.1984 B(  6-C , 26-C ) :   0.1493 B(  6-C , 27-C ) :   0.1514 
B(  6-C , 38-H ) :   0.1677 B(  7-C ,  8-S ) :   0.2521 B(  7-C ,  9-O ) :  -0.1118 
B(  7-C , 10-O ) :   0.2955 B(  7-C , 13-H ) :   1.4695 B(  7-C , 14-H ) :   0.1142 
B(  7-C , 16-N ) :  -0.1820 B(  7-C , 21-C ) :  -0.2052 B(  7-C , 25-C ) :   0.3273 
B(  7-C , 26-C ) :   0.1152 B(  7-C , 27-C ) :  -0.5548 B(  7-C , 38-H ) :   0.2084 
B(  8-S ,  9-O ) :   1.1963 B(  8-S , 10-O ) :   1.2352 B(  8-S , 11-N ) :   1.3481 
B(  8-S , 21-C ) :   0.1085 B(  8-S , 25-C ) :  -0.1099 B(  9-O , 11-N ) :   0.1080 
B( 11-N , 12-H ) :   0.9227 B( 14-H , 17-O ) :   0.1212 B( 14-H , 21-C ) :   0.1406 
B( 14-H , 27-C ) :  -0.1176 B( 14-H , 38-H ) :  -0.1015 B( 15-C , 16-N ) :   1.0934 
B( 15-C , 17-O ) :   0.9162 B( 15-C , 18-N ) :   0.2560 B( 15-C , 24-C ) :   0.2040 
B( 15-C , 25-C ) :  -0.1085 B( 16-N , 18-N ) :   0.3219 B( 16-N , 21-C ) :   0.1895 
B( 16-N , 22-C ) :  -0.2430 B( 16-N , 23-C ) :   0.1010 B( 16-N , 24-C ) :   0.2477 
B( 16-N , 25-C ) :  -0.2005 B( 16-N , 28-H ) :   1.0515 B( 16-N , 35-H ) :  -0.1313 
B( 18-N , 19-C ) :   0.8209 B( 18-N , 21-C ) :  -0.1630 B( 18-N , 22-C ) :   0.6586 
B( 18-N , 24-C ) :  -0.2125 B( 18-N , 25-C ) :   0.2525 B( 19-C , 20-C ) :   0.8369 
B( 19-C , 21-C ) :   0.2294 B( 19-C , 23-C ) :   0.5260 B( 19-C , 29-H ) :   0.9454 
B( 19-C , 33-H ) :  -0.1007 B( 20-C , 21-C ) :   0.2940 B( 20-C , 30-H ) :   1.0758 
B( 20-C , 31-H ) :   1.0743 B( 20-C , 38-H ) :  -0.1106 B( 21-C , 22-C ) :   0.7951 
B( 21-C , 24-C ) :   0.2772 B( 21-C , 26-C ) :   0.3157 B( 21-C , 31-H ) :  -0.1130 
B( 21-C , 36-H ) :   0.1653 B( 21-C , 37-H ) :  -0.1165 B( 21-C , 38-H ) :  -0.2009 
B( 22-C , 24-C ) :  -0.3092 B( 22-C , 25-C ) :  -0.2653 B( 22-C , 26-C ) :  -0.1576 
B( 22-C , 27-C ) :   0.2809 B( 22-C , 35-H ) :   0.1537 B( 22-C , 38-H ) :   0.2654 
B( 23-C , 32-H ) :   0.8319 B( 23-C , 33-H ) :   1.0282 B( 23-C , 34-H ) :   1.0889 
B( 24-C , 25-C ) :   1.1221 B( 24-C , 26-C ) :   0.2972 B( 24-C , 35-H ) :   0.8408 
B( 24-C , 36-H ) :  -0.1222 B( 25-C , 26-C ) :   1.2263 B( 25-C , 27-C ) :  -0.1970 
B( 25-C , 36-H ) :   0.7695 B( 26-C , 27-C ) :   0.9784 B( 26-C , 36-H ) :  -0.1716 
B( 26-C , 37-H ) :   0.3431 B( 26-C , 38-H ) :  -0.1379 B( 27-C , 37-H ) :  -0.1131 
B( 27-C , 38-H ) :   1.5672 

-------
TIMINGS
-------

Total SCF time: 0 days 0 hours 14 min 50 sec 

Total time                  ....     890.032 sec
Sum of individual times     ....     883.322 sec  ( 99.2%)

Fock matrix formation       ....     860.034 sec  ( 96.6%)
  Split-RI-J                ....      50.850 sec  (  5.9% of F)
  Chain of spheres X        ....     727.593 sec  ( 84.6% of F)
  XC integration            ....      78.642 sec  (  9.1% of F)
    Basis function eval.    ....      10.663 sec  ( 13.6% of XC)
    Density eval.           ....      35.861 sec  ( 45.6% of XC)
    XC-Functional eval.     ....       0.515 sec  (  0.7% of XC)
    XC-Potential eval.      ....      24.110 sec  ( 30.7% of XC)
Diagonalization             ....       3.293 sec  (  0.4%)
Density matrix formation    ....       0.521 sec  (  0.1%)
Population analysis         ....       0.652 sec  (  0.1%)
Initial guess               ....       4.395 sec  (  0.5%)
Orbital Transformation      ....       0.000 sec  (  0.0%)
Orbital Orthonormalization  ....       0.000 sec  (  0.0%)
DIIS solution               ....       2.271 sec  (  0.3%)
SOSCF solution              ....       4.589 sec  (  0.5%)
Grid generation             ....       7.567 sec  (  0.9%)

Maximum memory used throughout the entire SCF-calculation: 461.8 MB


           ************************************************************
           *        Program running with 8 parallel MPI-processes     *
           *              working on a common directory               *
           ************************************************************

------------------------------------------------------------------------------
                                ORCA  MP2 
------------------------------------------------------------------------------

Freezing NCore=64 chemical core electrons

   <<< Use J-auxbasis for calculation of Separable RI-J derivative contributions (Dim=1345) >>> 


-------------
RI-MP2 ENERGY
-------------
Dimension of the basis                    ... 1457
Memory devoted to MP2                     ... 3000 MB   
Data format for buffers                   ... DOUBLE
Compression type for matrix containers    ... UNCOMPRESSED
Scaling for aa/bb pairs                   ...   2.500e-01
Scaling for ab pairs                      ...   5.300e-01
Overall scaling of the MP2 energy         ...   1.000e+00
Calculating two index integrals           ... done (    0.152 sec)
Cholesky decomposition of V**-1           ... done (    1.198 sec)

-----------------
RI-TRANSFORMATION (AUX index driven)
-----------------

Dimension of the orbital-basis         ... 1457
Dimension of the aux-basis             ... 3316
Transformation of internal/external MOs...   32-  94 to   95-1456
Number Format for Storage              ... Double (8 Byte)
Integral mode                          ... Direct

First Phase: integral generation and transformation of MO indices
  Aux angular momentum 0               ... done (    2.284 sec)
  Aux angular momentum 1               ... done (    4.300 sec)
  Aux angular momentum 2               ... done (    6.040 sec)
  Aux angular momentum 3               ... done (    5.717 sec)
  Aux angular momentum 4               ... done (    2.914 sec)
Closing buffer VIA ( 2.12 GB; CompressionRatio= 1.00)
  Phase 1 completed in    21.584 sec
Second Phase: sorting and transformation of aux index

IA-Transformation
Memory available                       ... 2824 MB 
Max. # MO pairs treated in a batch     ... 8    
# of internal orbitals                 ... 63
# batches for internal orbitals        ... 1
Closing buffer IAV ( 2.12 GB; CompressionRatio= 1.00)
(ia|v) transformation done in     4.943 sec

  Phase 2 completed in     5.446 sec
RI-Integral transformation completed in    27.051 sec
Opening buffers                              ... done

Starting loop over batches of integrals:

Operator 0  - window                       ... ( 32- 94)x( 95-1456)
Operator 0  - Memory available             ...  3000 MB
Operator 0  - Memory needed per MO         ...  34.5 MB
Operator 0  - Number of orbitals per batch ... 8
Operator 0  - Number of batches            ... 1

OPERATOR  0   PASS   0:  MOs    32 ...   39 +   40 ...   47 +   48 ...   55 +   56 ...   63
                            +   64 ...   71 +   72 ...   79 +   80 ...   87 +   88 ...   94
  Reading integrals       ... ok
  Internal MO  34
  Internal MO  37
Time spent in pair loops =     7.616 sec
Deleting buffer (Ka|jb)[aa] ...done

-----------------------------------------------
 RI-MP2 CORRELATION ENERGY:     -2.234479233 Eh
-----------------------------------------------


-------
TIMINGS
-------

Total time                :  118.869 sec
Integral trafo            :   27.070 sec ( 22.8%)
I/O of integrals          :    0.196 sec (  0.2%)
K(i,j) Operators          :    6.435 sec (  5.4%)
T(i,j) pair energies      :    0.622 sec (  0.5%)
V-calculation             :    0.152 sec (  0.1%)
V**(-1/2)                 :    1.198 sec (  1.0%)
Gamma(ia|P)               :    0.000 sec (  0.0%)
Gamma-Trafo               :    0.000 sec (  0.0%)
D(virtual)                :    0.000 sec (  0.0%)
D(internal)               :    0.000 sec (  0.0%)
W(virtual)                :    0.000 sec (  0.0%)
W(internal)               :    0.000 sec (  0.0%)
L(virtual)                :    0.000 sec (  0.0%)
L(internal)               :    0.000 sec (  0.0%)
G(D)                      :    0.000 sec (  0.0%)
G(Z)                      :    0.000 sec (  0.0%)
Z-Vector Solution         :    0.000 sec (  0.0%)
3-Index Derivative        :    0.000 sec (  0.0%)
2-Index Derivative        :    0.000 sec (  0.0%)
Separable Gradient (RIJ)  :    0.000 sec (  0.0%)
Separable Gradient (COSX) :    0.000 sec (  0.0%)


---------------------------------------
MP2 TOTAL ENERGY:    -1865.092354991 Eh
---------------------------------------

Maximum memory used throughout the entire MP2-calculation: 562.8 MB


-------------------------------------------------------------------------------
                          DFT DISPERSION CORRECTION                            
                                                                               
                              DFTD3 V3.1  Rev 1                                
                          USING Becke-Johnson damping                          
-------------------------------------------------------------------------------
The DSD-PBEP86 functional is recognized
Active option DFTDOPT                   ...         4   

molecular C6(AA) [au] = 21739.352040 


            DFT-D V3
 parameters
 s6 scaling factor         :     0.4180 
 a1 scaling factor         :     0.0000 
 s8 scaling factor         :     0.0000 
 a2 scaling factor         :     5.6500 
 ad hoc parameters k1-k3   :    16.0000     1.3333    -4.0000 

 Edisp/kcal,au: -20.524100426093  -0.032707232456 
 E6   /kcal   : -20.524100426 
 E8   /kcal   :  -0.000000000 
 % E8         :   0.000000000 

-------------------------   ----------------
Dispersion correction           -0.032707232
-------------------------   ----------------


-------------------------   --------------------
FINAL SINGLE POINT ENERGY     -1865.125062223915
-------------------------   --------------------


                            ***************************************
                            *     ORCA property calculations      *
                            ***************************************


  WARNING: The energy has been calculated at the MP2 level but the densities
           used in the property calculations are still SCF densities
           MP2 response densities have not been calculated 
           use %mp2 Density relaxed end
           or  %mp2 Density unrelaxed end

                                    ---------------------
                                    Active property flags
                                    ---------------------
   (+) Dipole Moment


------------------------------------------------------------------------------
                       ORCA ELECTRIC PROPERTIES CALCULATION
------------------------------------------------------------------------------

Dipole Moment Calculation                       ... on
Quadrupole Moment Calculation                   ... off
Polarizability Calculation                      ... off
GBWName                                         ... A.37.avtz.gbw
Electron density                                ... A.37.avtz.scfp
The origin for moment calculation is the CENTER OF MASS  = (-0.227495, -1.519181 -3.348998)

-------------
DIPOLE MOMENT
-------------
                                X             Y             Z
Electronic contribution:    -22.33243      25.12032       6.01889
Nuclear contribution   :     27.00048     -27.30192      -9.19355
                        -----------------------------------------
Total Dipole Moment    :      4.66805      -2.18160      -3.17467
                        -----------------------------------------
Magnitude (a.u.)       :      6.05216
Magnitude (Debye)      :     15.38336



--------------------
Rotational spectrum 
--------------------
 
Rotational constants in cm-1:     0.014643     0.003032     0.002988 
Rotational constants in MHz :   438.990488    90.894115    89.569855 

 Dipole components along the rotational axes: 
x,y,z [a.u.] :    -5.446876     2.559945    -0.637836 
x,y,z [Debye]:   -13.844859     6.506864    -1.621250 

 

Timings for individual modules:

Sum of individual times         ...     1018.522 sec (=  16.975 min)
GTO integral calculation        ...        5.901 sec (=   0.098 min)   0.6 %
SCF iterations                  ...      891.646 sec (=  14.861 min)  87.5 %
MP2 module                      ...      120.975 sec (=   2.016 min)  11.9 %
                             ****ORCA TERMINATED NORMALLY****
TOTAL RUN TIME: 0 days 0 hours 17 minutes 2 seconds 434 msec
