
                                 *****************
                                 * O   R   C   A *
                                 *****************

                                            #,                                       
                                            ###                                      
                                            ####                                     
                                            #####                                    
                                            ######                                   
                                           ########,                                 
                                     ,,################,,,,,                         
                               ,,#################################,,                 
                          ,,##########################################,,             
                       ,#########################################, ''#####,          
                    ,#############################################,,   '####,        
                  ,##################################################,,,,####,       
                ,###########''''           ''''###############################       
              ,#####''   ,,,,##########,,,,          '''####'''          '####       
            ,##' ,,,,###########################,,,                        '##       
           ' ,,###''''                  '''############,,,                           
         ,,##''                                '''############,,,,        ,,,,,,###''
      ,#''                                            '''#######################'''  
     '                                                          ''''####''''         
             ,#######,   #######,   ,#######,      ##                                
            ,#'     '#,  ##    ##  ,#'     '#,    #''#        ######   ,####,        
            ##       ##  ##   ,#'  ##            #'  '#       #        #'  '#        
            ##       ##  #######   ##           ,######,      #####,   #    #        
            '#,     ,#'  ##    ##  '#,     ,#' ,#      #,         ##   #,  ,#        
             '#######'   ##     ##  '#######'  #'      '#     #####' # '####'        



                  #######################################################
                  #                        -***-                        #
                  #          Department of theory and spectroscopy      #
                  #    Directorship and core code : Frank Neese         #
                  #        Max Planck Institute fuer Kohlenforschung    #
                  #                Kaiser Wilhelm Platz 1               #
                  #                 D-45470 Muelheim/Ruhr               #
                  #                      Germany                        #
                  #                                                     #
                  #                  All rights reserved                #
                  #                        -***-                        #
                  #######################################################


                         Program Version 5.0.3 -  RELEASE  -


 With contributions from (in alphabetic order):
   Daniel Aravena         : Magnetic Suceptibility
   Michael Atanasov       : Ab Initio Ligand Field Theory (pilot matlab implementation)
   Alexander A. Auer      : GIAO ZORA, VPT2 properties, NMR spectrum
   Ute Becker             : Parallelization
   Giovanni Bistoni       : ED, misc. LED, open-shell LED, HFLD
   Martin Brehm           : Molecular dynamics
   Dmytro Bykov           : SCF Hessian
   Vijay G. Chilkuri      : MRCI spin determinant printing, contributions to CSF-ICE
   Dipayan Datta          : RHF DLPNO-CCSD density
   Achintya Kumar Dutta   : EOM-CC, STEOM-CC
   Dmitry Ganyushin       : Spin-Orbit,Spin-Spin,Magnetic field MRCI
   Miquel Garcia          : C-PCM and meta-GGA Hessian, CC/C-PCM, Gaussian charge scheme
   Yang Guo               : DLPNO-NEVPT2, F12-NEVPT2, CIM, IAO-localization
   Andreas Hansen         : Spin unrestricted coupled pair/coupled cluster methods
   Benjamin Helmich-Paris : MC-RPA, TRAH-SCF, COSX integrals
   Lee Huntington         : MR-EOM, pCC
   Robert Izsak           : Overlap fitted RIJCOSX, COSX-SCS-MP3, EOM
   Marcus Kettner         : VPT2
   Christian Kollmar      : KDIIS, OOCD, Brueckner-CCSD(T), CCSD density, CASPT2, CASPT2-K
   Simone Kossmann        : Meta GGA functionals, TD-DFT gradient, OOMP2, MP2 Hessian
   Martin Krupicka        : Initial AUTO-CI
   Lucas Lang             : DCDCAS
   Marvin Lechner         : AUTO-CI (C++ implementation), FIC-MRCC
   Dagmar Lenk            : GEPOL surface, SMD
   Dimitrios Liakos       : Extrapolation schemes; Compound Job, initial MDCI parallelization
   Dimitrios Manganas     : Further ROCIS development; embedding schemes
   Dimitrios Pantazis     : SARC Basis sets
   Anastasios Papadopoulos: AUTO-CI, single reference methods and gradients
   Taras Petrenko         : DFT Hessian,TD-DFT gradient, ASA, ECA, R-Raman, ABS, FL, XAS/XES, NRVS
   Peter Pinski           : DLPNO-MP2, DLPNO-MP2 Gradient
   Christoph Reimann      : Effective Core Potentials
   Marius Retegan         : Local ZFS, SOC
   Christoph Riplinger    : Optimizer, TS searches, QM/MM, DLPNO-CCSD(T), (RO)-DLPNO pert. Triples
   Tobias Risthaus        : Range-separated hybrids, TD-DFT gradient, RPA, STAB
   Michael Roemelt        : Original ROCIS implementation
   Masaaki Saitow         : Open-shell DLPNO-CCSD energy and density
   Barbara Sandhoefer     : DKH picture change effects
   Avijit Sen             : IP-ROCIS
   Kantharuban Sivalingam : CASSCF convergence, NEVPT2, FIC-MRCI
   Bernardo de Souza      : ESD, SOC TD-DFT
   Georgi Stoychev        : AutoAux, RI-MP2 NMR, DLPNO-MP2 response
   Willem Van den Heuvel  : Paramagnetic NMR
   Boris Wezisla          : Elementary symmetry handling
   Frank Wennmohs         : Technical directorship


 We gratefully acknowledge several colleagues who have allowed us to
 interface, adapt or use parts of their codes:
   Stefan Grimme, W. Hujo, H. Kruse, P. Pracht,  : VdW corrections, initial TS optimization,
                  C. Bannwarth, S. Ehlert          DFT functionals, gCP, sTDA/sTD-DF
   Ed Valeev, F. Pavosevic, A. Kumar             : LibInt (2-el integral package), F12 methods
   Garnet Chan, S. Sharma, J. Yang, R. Olivares  : DMRG
   Ulf Ekstrom                                   : XCFun DFT Library
   Mihaly Kallay                                 : mrcc  (arbitrary order and MRCC methods)
   Jiri Pittner, Ondrej Demel                    : Mk-CCSD
   Frank Weinhold                                : gennbo (NPA and NBO analysis)
   Christopher J. Cramer and Donald G. Truhlar   : smd solvation model
   Lars Goerigk                                  : TD-DFT with DH, B97 family of functionals
   V. Asgeirsson, H. Jonsson                     : NEB implementation
   FAccTs GmbH                                   : IRC, NEB, NEB-TS, DLPNO-Multilevel, CI-OPT
                                                   MM, QMMM, 2- and 3-layer-ONIOM, Crystal-QMMM,
                                                   LR-CPCM, SF, NACMEs, symmetry and pop. for TD-DFT,
                                                   nearIR, NL-DFT gradient (VV10), updates on ESD,
                                                   ML-optimized integration grids
   S Lehtola, MJT Oliveira, MAL Marques          : LibXC Library
   Liviu Ungur et al                             : ANISO software


 Your calculation uses the libint2 library for the computation of 2-el integrals
 For citations please refer to: http://libint.valeyev.net

 Your ORCA version has been built with support for libXC version: 5.1.0
 For citations please refer to: https://tddft.org/programs/libxc/

 This ORCA versions uses:
   CBLAS   interface :  Fast vector & matrix operations
   LAPACKE interface :  Fast linear algebra routines
   SCALAPACK package :  Parallel linear algebra routines
   Shared memory     :  Shared parallel matrices
   BLAS/LAPACK       :  OpenBLAS 0.3.15  USE64BITINT DYNAMIC_ARCH NO_AFFINITY SkylakeX SINGLE_THREADED
        Core in use  :  SkylakeX
   Copyright (c) 2011-2014, The OpenBLAS Project


Your calculation utilizes the atom-pairwise dispersion correction
with the Becke-Johnson damping scheme (D3BJ)
Cite in your paper:
S.Grimme, S.Ehrlich, L.Goerigk, J Comput Chem, (2011), 32, 1456–1465 
S.Grimme, J.Antony, S.Ehrlich and H.Krieg, J.Chem.Phys., 132, (2010), 154104 
   

================================================================================

----- Orbital basis set information -----
Your calculation utilizes the basis: aug-cc-pVTZ 
    H, B-Ne : Obtained from the ccRepo (grant-hill.group.shef.ac.uk/ccrepo) Feb. 2017
              R. A. Kendall, T. H. Dunning, Jr., R. J. Harrison, J. Chem. Phys. 96, 6796 (1992)
         He : Obtained from the ccRepo (grant-hill.group.shef.ac.uk/ccrepo) Feb. 2017
              D. E. Woon, T. H. Dunning, Jr., J. Chem. Phys. 100, 2975 (1994)
  Li-Be, Na : Obtained from the ccRepo (grant-hill.group.shef.ac.uk/ccrepo) Feb. 2017
              B. P. Prascher, D. E. Woon, K. A. Peterson, T. H. Dunning, Jr., A. K. Wilson, Theor. Chem. Acc. 128, 69 (2011)
         Mg : Obtained from the Peterson Research Group Website (tyr0.chem.wsu.edu/~kipeters) Feb. 2017
              B. P. Prascher, D. E. Woon, K. A. Peterson, T. H. Dunning, Jr., A. K. Wilson, Theor. Chem. Acc. 128, 69 (2011)
      Al-Ar : Obtained from the ccRepo (grant-hill.group.shef.ac.uk/ccrepo) Feb. 2017
              D. E. Woon, T. H. Dunning, Jr., J. Chem. Phys. 98, 1358 (1993)
      Sc-Zn : Obtained from the ccRepo (grant-hill.group.shef.ac.uk/ccrepo) Feb. 2017
              N. B. Balabanov, K. A. Peterson, J. Chem. Phys. 123, 064107 (2005)
              N. B. Balabanov, K. A. Peterson, J. Chem. Phys. 125, 074110 (2006)
      Ga-Kr : Obtained from the ccRepo (grant-hill.group.shef.ac.uk/ccrepo) Feb. 2017
              A. K. Wilson, D. E. Woon, K. A. Peterson, T. H. Dunning, Jr., J. Chem. Phys. 110, 7667 (1999)
     Ag, Au : Obtained from the Peterson Research Group Website (tyr0.chem.wsu.edu/~kipeters) Feb. 2017
              K. A. Peterson, C. Puzzarini, Theor. Chem. Acc. 114, 283 (2005)

----- AuxJ basis set information -----
Your calculation utilizes the auxiliary basis: def2/J
   F. Weigend, Phys. Chem. Chem. Phys. 8, 1057 (2006).

----- AuxC basis set information -----
Your calculation utilizes the auxiliary basis: aug-cc-pVTZ/C 
  H-He, B-F, Al-Ar, Ga-Kr : Obtained from the EMSL Basis Set Exchange (bse.pnl.gov) Feb. 2017
                            F. Weigend, A. Kohn, C. Hattig, J. Chem. Phys. 116, 3175 (2002)
                   Be, Mg : Obtained from the TURBOMOLE 7.0 basis set library
                            C. Haettig, Phys. Chem. Chem. Phys. 7, 59 (2005)
                       Ne : Obtained from the EMSL Basis Set Exchange (bse.pnl.gov) Feb. 2017
                            C. Haettig, Phys. Chem. Chem. Phys. 7, 59 (2005)
                            F. Weigend, A. Kohn, C. Hattig, J. Chem. Phys. 116, 3175 (2002)
                    Sc-Zn : Obtained from the EMSL Basis Set Exchange (bse.pnl.gov) Feb. 2017
                            J. G. Hill, J. A. Platts, J. Chem. Phys. 128, 044104 (2008)

================================================================================
                                        WARNINGS
                       Please study these warnings very carefully!
================================================================================


WARNING: No MP2 level density has been requested!
         To caclulate MP2 level properties use
         %mp2 Density relaxed end
         or
         %mp2 Density unrelaxed end
         Otherwise for double-hybrid DFT only the energy is correct!

WARNING: There are different parametrizations of Gershom Martin's DSD-DFs
         for use with and without D3(BJ)!
         You are using the D3(BJ) parametrized version,
         consistent with the GMTKN55 benchmark (L. Goerigk et al., PCCP 2017, 19, 32184)

WARNING: The frozen-core approximation is turned on by default for 
         the MP2 part of double-hybrid DFT.

INFO   : the flag for use of the SHARK integral package has been found!

================================================================================
                                       INPUT FILE
================================================================================
NAME = A.4.avtz.com
|  1> !PAL8
|  2> !RI-DSD-PBEP86 D3BJ aug-cc-pVTZ aug-cc-pVTZ/C TightSCF
|  3> %maxcore 5000
|  4> 
|  5> * xyz -1 1
|  6> C -1.4041689012  0.677189943 -0.9062248446
|  7> C -2.592062363  0.7671882575 -1.6297043638
|  8> H -3.5329175195  0.7571633808 -1.0845885124
|  9> C -2.5682858276  0.8832030106 -3.0160134573
| 10> H -3.4991062798  0.9602880083 -3.5764194728
| 11> C -1.348570604  0.9105341421 -3.7030081739
| 12> N -1.3225850949  1.0772215231 -5.1097493123
| 13> C -0.159730526  0.8334545265 -2.9735841493
| 14> H  0.793679379  0.8703947978 -3.4992874052
| 15> C -0.1900842596  0.7128819368 -1.5836755103
| 16> H  0.7273038037  0.651617636 -1.0049364329
| 17> S -1.4737776403  0.4581470015  0.9015496952
| 18> O -1.8681337271 -0.9574499034  1.0440694142
| 19> O -0.0860522301  0.7992676943  1.3142641251
| 20> N -2.5947584062  1.4003704873  1.4581473965
| 21> H -2.16833617  2.3246201619  1.5554350145
| 22> H -2.14683953  0.6931654941 -5.5591714114
| 23> H -0.4917481036  0.6755749018 -5.5307255997
| 24> *
| 25> 
| 26> 
| 27> 
| 28>                          ****END OF INPUT****
================================================================================

                       ****************************
                       * Single Point Calculation *
                       ****************************

---------------------------------
CARTESIAN COORDINATES (ANGSTROEM)
---------------------------------
  C     -1.404169    0.677190   -0.906225
  C     -2.592062    0.767188   -1.629704
  H     -3.532918    0.757163   -1.084589
  C     -2.568286    0.883203   -3.016013
  H     -3.499106    0.960288   -3.576419
  C     -1.348571    0.910534   -3.703008
  N     -1.322585    1.077222   -5.109749
  C     -0.159731    0.833455   -2.973584
  H      0.793679    0.870395   -3.499287
  C     -0.190084    0.712882   -1.583676
  H      0.727304    0.651618   -1.004936
  S     -1.473778    0.458147    0.901550
  O     -1.868134   -0.957450    1.044069
  O     -0.086052    0.799268    1.314264
  N     -2.594758    1.400370    1.458147
  H     -2.168336    2.324620    1.555435
  H     -2.146840    0.693165   -5.559171
  H     -0.491748    0.675575   -5.530726

----------------------------
CARTESIAN COORDINATES (A.U.)
----------------------------
  NO LB      ZA    FRAG     MASS         X           Y           Z
   0 C     6.0000    0    12.011   -2.653495    1.279704   -1.712517
   1 C     6.0000    0    12.011   -4.898288    1.449776   -3.079695
   2 H     1.0000    0     1.008   -6.676247    1.430831   -2.049575
   3 C     6.0000    0    12.011   -4.853357    1.669012   -5.699439
   4 H     1.0000    0     1.008   -6.612353    1.814681   -6.758453
   5 C     6.0000    0    12.011   -2.548429    1.720660   -6.997671
   6 N     7.0000    0    14.007   -2.499324    2.035654   -9.656027
   7 C     6.0000    0    12.011   -0.301847    1.575001   -5.619260
   8 H     1.0000    0     1.008    1.499837    1.644808   -6.612695
   9 C     6.0000    0    12.011   -0.359207    1.347152   -2.992713
  10 H     1.0000    0     1.008    1.374405    1.231379   -1.899055
  11 S    16.0000    0    32.060   -2.785036    0.865772    1.703682
  12 O     8.0000    0    15.999   -3.530261   -1.809318    1.973005
  13 O     8.0000    0    15.999   -0.162615    1.510397    2.483599
  14 N     7.0000    0    14.007   -4.903383    2.646317    2.755499
  15 H     1.0000    0     1.008   -4.097562    4.392895    2.939346
  16 H     1.0000    0     1.008   -4.056939    1.309893  -10.505311
  17 H     1.0000    0     1.008   -0.929269    1.276652  -10.451557

--------------------------------
INTERNAL COORDINATES (ANGSTROEM)
--------------------------------
 C      0   0   0     0.000000000000     0.00000000     0.00000000
 C      1   0   0     1.393776591819     0.00000000     0.00000000
 H      2   1   0     1.087409865282   118.46423480     0.00000000
 C      2   1   3     1.391358203085   120.53166931   179.23953406
 H      4   2   1     1.089230789738   120.26018342   180.43137338
 C      4   2   1     1.400147834361   120.35740009     0.02458254
 N      6   4   2     1.416820581490   120.36068627   182.28872959
 C      6   4   2     1.396904222151   118.95323503   359.34814403
 H      8   6   4     1.089366303802   119.40500944   180.98812036
 C      1   2   3     1.390760525701   119.30832917   181.16075685
 H     10   1   2     1.086412947708   118.43851103   179.40022652
 S      1   2   3     1.822326527692   119.34976122     3.23001444
 O     12   1   2     1.476395336847   102.78034833    74.71734649
 O     12   1   2     1.487440197729   102.24237715   195.60229098
 N     12   1   2     1.566583536171   107.90835037   317.85685521
 H     15  12   1     1.022515655205   106.20316826   277.29313916
 H      7   6   4     1.014334575154   112.36278566   329.87492272
 H      7   6   4     1.014313141523   112.36588643   206.00910762

---------------------------
INTERNAL COORDINATES (A.U.)
---------------------------
 C      0   0   0     0.000000000000     0.00000000     0.00000000
 C      1   0   0     2.633856050408     0.00000000     0.00000000
 H      2   1   0     2.054906840708   118.46423480     0.00000000
 C      2   1   3     2.629285958016   120.53166931   179.23953406
 H      4   2   1     2.058347889239   120.26018342   180.43137338
 C      4   2   1     2.645895953946   120.35740009     0.02458254
 N      6   4   2     2.677402879920   120.36068627   182.28872959
 C      6   4   2     2.639766415184   118.95323503   359.34814403
 H      8   6   4     2.058603973708   119.40500944   180.98812036
 C      1   2   3     2.628156511443   119.30832917   181.16075685
 H     10   1   2     2.053022939514   118.43851103   179.40022652
 S      1   2   3     3.443698063917   119.34976122     3.23001444
 O     12   1   2     2.789982852039   102.78034833    74.71734649
 O     12   1   2     2.810854614293   102.24237715   195.60229098
 N     12   1   2     2.960413849274   107.90835037   317.85685521
 H     15  12   1     1.932274555985   106.20316826   277.29313916
 H      7   6   4     1.916814555208   112.36278566   329.87492272
 H      7   6   4     1.916774051517   112.36588643   206.00910762

---------------------
BASIS SET INFORMATION
---------------------
There are 5 groups of distinct atoms

 Group   1 Type C   : 19s6p3d2f contracted to 5s4p3d2f pattern {88111/3111/111/11}
 Group   2 Type H   : 6s3p2d contracted to 4s3p2d pattern {3111/111/11}
 Group   3 Type N   : 19s6p3d2f contracted to 5s4p3d2f pattern {88111/3111/111/11}
 Group   4 Type S   : 42s17p3d2f contracted to 6s5p3d2f pattern {131313111/77111/111/11}
 Group   5 Type O   : 19s6p3d2f contracted to 5s4p3d2f pattern {88111/3111/111/11}

Atom   0C    basis set group =>   1
Atom   1C    basis set group =>   1
Atom   2H    basis set group =>   2
Atom   3C    basis set group =>   1
Atom   4H    basis set group =>   2
Atom   5C    basis set group =>   1
Atom   6N    basis set group =>   3
Atom   7C    basis set group =>   1
Atom   8H    basis set group =>   2
Atom   9C    basis set group =>   1
Atom  10H    basis set group =>   2
Atom  11S    basis set group =>   4
Atom  12O    basis set group =>   5
Atom  13O    basis set group =>   5
Atom  14N    basis set group =>   3
Atom  15H    basis set group =>   2
Atom  16H    basis set group =>   2
Atom  17H    basis set group =>   2
---------------------------------
AUXILIARY/J BASIS SET INFORMATION
---------------------------------
There are 5 groups of distinct atoms

 Group   1 Type C   : 12s5p4d2f1g contracted to 6s4p3d1f1g pattern {711111/2111/211/2/1}
 Group   2 Type H   : 5s2p1d contracted to 3s1p1d pattern {311/2/1}
 Group   3 Type N   : 12s5p4d2f1g contracted to 6s4p3d1f1g pattern {711111/2111/211/2/1}
 Group   4 Type S   : 14s5p5d2f1g contracted to 8s4p3d1f1g pattern {71111111/2111/311/2/1}
 Group   5 Type O   : 12s5p4d2f1g contracted to 6s4p3d1f1g pattern {711111/2111/211/2/1}

Atom   0C    basis set group =>   1
Atom   1C    basis set group =>   1
Atom   2H    basis set group =>   2
Atom   3C    basis set group =>   1
Atom   4H    basis set group =>   2
Atom   5C    basis set group =>   1
Atom   6N    basis set group =>   3
Atom   7C    basis set group =>   1
Atom   8H    basis set group =>   2
Atom   9C    basis set group =>   1
Atom  10H    basis set group =>   2
Atom  11S    basis set group =>   4
Atom  12O    basis set group =>   5
Atom  13O    basis set group =>   5
Atom  14N    basis set group =>   3
Atom  15H    basis set group =>   2
Atom  16H    basis set group =>   2
Atom  17H    basis set group =>   2
---------------------------------
AUXILIARY/C BASIS SET INFORMATION
---------------------------------
There are 5 groups of distinct atoms

 Group   1 Type C   : 9s7p6d4f2g contracted to 9s7p6d4f2g pattern {111111111/1111111/111111/1111/11}
 Group   2 Type H   : 5s4p3d2f contracted to 5s4p3d2f pattern {11111/1111/111/11}
 Group   3 Type N   : 9s7p6d4f2g contracted to 9s7p6d4f2g pattern {111111111/1111111/111111/1111/11}
 Group   4 Type S   : 11s9p8d6f3g contracted to 11s9p8d6f3g pattern {11111111111/111111111/11111111/111111/111}
 Group   5 Type O   : 9s7p6d4f2g contracted to 9s7p6d4f2g pattern {111111111/1111111/111111/1111/11}

Atom   0C    basis set group =>   1
Atom   1C    basis set group =>   1
Atom   2H    basis set group =>   2
Atom   3C    basis set group =>   1
Atom   4H    basis set group =>   2
Atom   5C    basis set group =>   1
Atom   6N    basis set group =>   3
Atom   7C    basis set group =>   1
Atom   8H    basis set group =>   2
Atom   9C    basis set group =>   1
Atom  10H    basis set group =>   2
Atom  11S    basis set group =>   4
Atom  12O    basis set group =>   5
Atom  13O    basis set group =>   5
Atom  14N    basis set group =>   3
Atom  15H    basis set group =>   2
Atom  16H    basis set group =>   2
Atom  17H    basis set group =>   2


           ************************************************************
           *        Program running with 8 parallel MPI-processes     *
           *              working on a common directory               *
           ************************************************************
------------------------------------------------------------------------------
                           ORCA GTO INTEGRAL CALCULATION
                           -- RI-GTO INTEGRALS CHOSEN --
------------------------------------------------------------------------------
------------------------------------------------------------------------------
                   ___                                                        
                  /   \      - P O W E R E D   B Y -                         
                 /     \                                                     
                 |  |  |   _    _      __       _____    __    __             
                 |  |  |  | |  | |    /  \     |  _  \  |  |  /  |          
                  \  \/   | |  | |   /    \    | | | |  |  | /  /          
                 / \  \   | |__| |  /  /\  \   | |_| |  |  |/  /          
                |  |  |   |  __  | /  /__\  \  |    /   |      \           
                |  |  |   | |  | | |   __   |  |    \   |  |\   \          
                \     /   | |  | | |  |  |  |  | |\  \  |  | \   \       
                 \___/    |_|  |_| |__|  |__|  |_| \__\ |__|  \__/        
                                                                              
                      - O R C A' S   B I G   F R I E N D -                    
                                      &                                       
                       - I N T E G R A L  F E E D E R -                       
                                                                              
 v1 FN, 2020, v2 2021                                                         
------------------------------------------------------------------------------


Reading SHARK input file A.4.avtz.SHARKINP.tmp ... ok
----------------------
SHARK INTEGRAL PACKAGE
----------------------

Number of atoms                             ...     18
Number of basis functions                   ...    756
Number of shells                            ...    294
Maximum angular momentum                    ...      3
Integral batch strategy                     ... SHARK/LIBINT Hybrid
RI-J (if used) integral strategy            ... SPLIT-RIJ (Revised 2003 algorithm where possible)
Printlevel                                  ...      1
Contraction scheme used                     ... PARTIAL GENERAL contraction
Coulomb Range Separation                    ... NOT USED
Exchange Range Separation                   ... NOT USED
Finite Nucleus Model                        ... NOT USED
Auxiliary Coulomb fitting basis             ... AVAILABLE
   # of basis functions in Aux-J            ...    618
   # of shells in Aux-J                     ...    202
   Maximum angular momentum in Aux-J        ...      4
Auxiliary J/K fitting basis                 ... NOT available
Auxiliary Correlation fitting basis         ... AVAILABLE
   # of basis functions in Aux-C            ...   1529
   # of shells in Aux-C                     ...    415
   Maximum angular momentum in Aux-C        ...      4
Auxiliary 'external' fitting basis          ... NOT available
Integral threshold                          ...     2.500000e-11
Primitive cut-off                           ...     2.500000e-12
Primitive pair pre-selection threshold      ...     2.500000e-12

Calculating pre-screening integrals         ... done (  0.0 sec) Dimension = 294
Calculating pre-screening integrals (ORCA)  ... done (  0.2 sec) Dimension = 219
Organizing shell pair data                  ... done (  0.3 sec)
Shell pair information
Total number of shell pairs                 ...     43365
Shell pairs after pre-screening             ...     33840
Total number of primitive shell pairs       ...     54007
Primitive shell pairs kept                  ...     39334
          la=0 lb=0:   7484 shell pairs
          la=1 lb=0:   8738 shell pairs
          la=1 lb=1:   2307 shell pairs
          la=2 lb=0:   5851 shell pairs
          la=2 lb=1:   3019 shell pairs
          la=2 lb=2:   1031 shell pairs
          la=3 lb=0:   2795 shell pairs
          la=3 lb=1:   1424 shell pairs
          la=3 lb=2:    955 shell pairs
          la=3 lb=3:    236 shell pairs

Calculating one electron integrals          ... done (  0.1 sec)
Calculating RI/J V-Matrix + Cholesky decomp.... done (  0.0 sec)
Calculating RI/C V-Matrix + Cholesky decomp.... done (  0.2 sec)
Calculating Nuclear repulsion               ... done (  0.0 sec) ENN=    709.368580006950 Eh

SHARK setup successfully completed in   1.2 seconds

Maximum memory used throughout the entire GTOINT-calculation: 74.1 MB


           ************************************************************
           *        Program running with 8 parallel MPI-processes     *
           *              working on a common directory               *
           ************************************************************
-------------------------------------------------------------------------------
                                 ORCA SCF
-------------------------------------------------------------------------------

------------
SCF SETTINGS
------------
Hamiltonian:
 Density Functional     Method          .... DFT(GTOs)
 Exchange Functional    Exchange        .... PBE
   PBE kappa parameter   XKappa         ....  0.804000
   PBE mue parameter    XMuePBE         ....  0.219520
 Correlation Functional Correlation     .... P86
 LDA part of GGA corr.  LDAOpt          .... VWN-5
 Gradients option       PostSCFGGA      .... off
 Hybrid DFT is turned on
   Fraction HF Exchange ScalHFX         ....  0.700000
   Scaling of DF-GGA-X  ScalDFX         ....  0.300000
   Scaling of DF-GGA-C  ScalDFC         ....  0.430000
   Scaling of DF-LDA-C  ScalLDAC        ....  0.430000
   Perturbative correction              ....  1.000000
   Density functional embedding theory  .... OFF
   NL short-range parameter             .... 14.200000
 RI-approximation to the Coulomb term is turned on
   Number of AuxJ basis functions       .... 618
   RIJ-COSX (HFX calculated with COS-X)).... on


General Settings:
 Integral files         IntName         .... A.4.avtz
 Hartree-Fock type      HFTyp           .... RHF
 Total Charge           Charge          ....   -1
 Multiplicity           Mult            ....    1
 Number of Electrons    NEL             ....   90
 Basis Dimension        Dim             ....  671
 Nuclear Repulsion      ENuc            ....    709.3685800069 Eh

Convergence Acceleration:
 DIIS                   CNVDIIS         .... on
   Start iteration      DIISMaxIt       ....    12
   Startup error        DIISStart       ....  0.200000
   # of expansion vecs  DIISMaxEq       ....     5
   Bias factor          DIISBfac        ....   1.050
   Max. coefficient     DIISMaxC        ....  10.000
 Trust-Rad. Augm. Hess. CNVTRAH         .... auto
   Auto Start mean grad. ratio tolernc. ....  1.125000
   Auto Start start iteration           ....    20
   Auto Start num. interpolation iter.  ....    10
   Max. Number of Micro iterations      ....    16
   Max. Number of Macro iterations      .... Maxiter - #DIIS iter
   Number of Davidson start vectors     ....     2
   Converg. threshold I  (grad. norm)   ....   1.000e-05
   Converg. threshold II (energy diff.) ....   1.000e-08
   Grad. Scal. Fac. for Micro threshold ....   0.100
   Minimum threshold for Micro iter.    ....   0.010
   NR start threshold (gradient norm)   ....   0.001
   Initial trust radius                 ....   0.400
   Minimum AH scaling param. (alpha)    ....   1.000
   Maximum AH scaling param. (alpha)    .... 1000.000
   Orbital update algorithm             .... Taylor
   White noise on init. David. guess    .... on
   Maximum white noise                  ....   0.010
   Quad. conv. algorithm                .... NR
 SOSCF                  CNVSOSCF        .... on
   Start iteration      SOSCFMaxIt      ....   150
   Startup grad/error   SOSCFStart      ....  0.003300
 Level Shifting         CNVShift        .... on
   Level shift para.    LevelShift      ....    0.2500
   Turn off err/grad.   ShiftErr        ....    0.0010
 Zerner damping         CNVZerner       .... off
 Static damping         CNVDamp         .... on
   Fraction old density DampFac         ....    0.7000
   Max. Damping (<1)    DampMax         ....    0.9800
   Min. Damping (>=0)   DampMin         ....    0.0000
   Turn off err/grad.   DampErr         ....    0.1000
 Fernandez-Rico         CNVRico         .... off

SCF Procedure:
 Maximum # iterations   MaxIter         ....   125
 SCF integral mode      SCFMode         .... Direct
   Integral package                     .... SHARK and LIBINT hybrid scheme
 Reset frequency        DirectResetFreq ....    20
 Integral Threshold     Thresh          ....  2.500e-11 Eh
 Primitive CutOff       TCut            ....  2.500e-12 Eh

Convergence Tolerance:
 Convergence Check Mode ConvCheckMode   .... Total+1el-Energy
 Convergence forced     ConvForced      .... 0
 Energy Change          TolE            ....  1.000e-08 Eh
 1-El. energy change                    ....  1.000e-05 Eh
 Orbital Gradient       TolG            ....  1.000e-05
 Orbital Rotation angle TolX            ....  1.000e-05
 DIIS Error             TolErr          ....  5.000e-07


Diagonalization of the overlap matrix:
Smallest eigenvalue                        ... 5.761e-07
Time for diagonalization                   ...    0.069 sec
Threshold for overlap eigenvalues          ... 1.000e-08
Number of eigenvalues below threshold      ... 0
Time for construction of square roots      ...    0.037 sec
Total time needed                          ...    0.110 sec

Time for model grid setup =    0.116 sec

------------------------------
INITIAL GUESS: MODEL POTENTIAL
------------------------------
Loading Hartree-Fock densities                     ... done
Calculating cut-offs                               ... done
Initializing the effective Hamiltonian             ... done
Setting up the integral package (SHARK)            ... done
Starting the Coulomb interaction                   ... done (   0.3 sec)
Reading the grid                                   ... done
Mapping shells                                     ... done
Starting the XC term evaluation                    ... done (   0.3 sec)
  promolecular density results
     # of electrons  =     88.997504037
     EX              =    -87.092508584
     EC              =     -0.003238154
     EX+EC           =    -87.095746738
Transforming the Hamiltonian                       ... done (   0.0 sec)
Diagonalizing the Hamiltonian                      ... done (   0.1 sec)
Back transforming the eigenvectors                 ... done (   0.0 sec)
Now organizing SCF variables                       ... done
                      ------------------
                      INITIAL GUESS DONE (   0.8 sec)
                      ------------------
-------------------
DFT GRID GENERATION
-------------------

General Integration Accuracy     IntAcc      ... 4.388
Radial Grid Type                 RadialGrid  ... OptM3 with GC (2021)
Angular Grid (max. ang.)         AngularGrid ... 4 (Lebedev-302)
Angular grid pruning method      GridPruning ... 4 (adaptive)
Weight generation scheme         WeightScheme... Becke
Basis function cutoff            BFCut       ... 1.0000e-11
Integration weight cutoff        WCut        ... 1.0000e-14
Angular grids for H and He will be reduced by one unit
Partially contracted basis set               ... off
Rotationally invariant grid construction     ... off

Total number of grid points                  ...    94348
Total number of batches                      ...     1483
Average number of points per batch           ...       63
Average number of grid points per atom       ...     5242
Time for grid setup =    0.489 sec

--------------------
COSX GRID GENERATION
--------------------

GRIDX 1
-------
General Integration Accuracy     IntAcc      ... 3.816
Radial Grid Type                 RadialGrid  ... OptM3 with GC (2021)
Angular Grid (max. ang.)         AngularGrid ... 1 (Lebedev-50)
Angular grid pruning method      GridPruning ... 4 (adaptive)
Weight generation scheme         WeightScheme... Becke
Basis function cutoff            BFCut       ... 1.0000e-11
Integration weight cutoff        WCut        ... 1.0000e-14
Angular grids for H and He will be reduced by one unit
Partially contracted basis set               ... on
Rotationally invariant grid construction     ... off

Total number of grid points                  ...    11770
Total number of batches                      ...      193
Average number of points per batch           ...       60
Average number of grid points per atom       ...      654
UseSFitting                                  ... on

GRIDX 2
-------
General Integration Accuracy     IntAcc      ... 4.020
Radial Grid Type                 RadialGrid  ... OptM3 with GC (2021)
Angular Grid (max. ang.)         AngularGrid ... 2 (Lebedev-110)
Angular grid pruning method      GridPruning ... 4 (adaptive)
Weight generation scheme         WeightScheme... Becke
Basis function cutoff            BFCut       ... 1.0000e-11
Integration weight cutoff        WCut        ... 1.0000e-14
Angular grids for H and He will be reduced by one unit
Partially contracted basis set               ... on
Rotationally invariant grid construction     ... off

Total number of grid points                  ...    29063
Total number of batches                      ...      465
Average number of points per batch           ...       62
Average number of grid points per atom       ...     1615
UseSFitting                                  ... on

GRIDX 3
-------
General Integration Accuracy     IntAcc      ... 4.338
Radial Grid Type                 RadialGrid  ... OptM3 with GC (2021)
Angular Grid (max. ang.)         AngularGrid ... 3 (Lebedev-194)
Angular grid pruning method      GridPruning ... 4 (adaptive)
Weight generation scheme         WeightScheme... Becke
Basis function cutoff            BFCut       ... 1.0000e-11
Integration weight cutoff        WCut        ... 1.0000e-14
Angular grids for H and He will be reduced by one unit
Partially contracted basis set               ... on
Rotationally invariant grid construction     ... off

Total number of grid points                  ...    64867
Total number of batches                      ...     1023
Average number of points per batch           ...       63
Average number of grid points per atom       ...     3604
UseSFitting                                  ... on

Time for X-Grid setup             =    0.889 sec

 re-compute Schwartz prescreening matrix in partically contracted basis (1) ...done (   0.090 sec)
--------------
SCF ITERATIONS
--------------
ITER       Energy         Delta-E        Max-DP      RMS-DP      [F,P]     Damp
               ***  Starting incremental Fock matrix formation  ***
  0   -888.5063568122   0.000000000000 0.13421889  0.00164050  0.3268575 0.7000
  1   -888.7075519747  -0.201195162530 0.11019427  0.00132798  0.1791418 0.7000
                               ***Turning on DIIS***
  2   -888.8074937850  -0.099941810269 0.26913697  0.00297797  0.0819858 0.0000
  3   -888.9733859338  -0.165892148851 0.05078402  0.00068089  0.0768835 0.0000
  4   -888.9975938720  -0.024207938182 0.01566964  0.00020138  0.0065618 0.0000
  5   -888.9982834681  -0.000689596148 0.00756745  0.00008900  0.0057597 0.0000
                      *** Initiating the SOSCF procedure ***
                           *** Shutting down DIIS ***
                      *** Re-Reading the Fockian *** 
                      *** Removing any level shift *** 
ITER      Energy       Delta-E        Grad      Rot      Max-DP    RMS-DP
  6   -888.99844951  -0.0001660425  0.000366  0.000366  0.004446  0.000047
               *** Restarting incremental Fock matrix formation ***
  7   -888.99850047  -0.0000509627  0.000203  0.000562  0.040414  0.000516
  8   -888.99850765  -0.0000071776  0.000085  0.000250  0.014503  0.000203
  9   -888.99850903  -0.0000013823  0.000038  0.000053  0.014262  0.000156
 10   -888.99850957  -0.0000005321  0.000008  0.000019  0.001989  0.000028
 11   -888.99850958  -0.0000000170  0.000005  0.000011  0.001257  0.000014
                  ***Gradient check signals convergence***
              ***Rediagonalizing the Fockian in SOSCF/NRSCF***

               *****************************************************
               *                     SUCCESS                       *
               *           SCF CONVERGED AFTER  12 CYCLES          *
               *****************************************************

Old exchange energy                            =    -62.068208385 Eh
New exchange energy                            =    -62.068206963 Eh
Exchange energy change after final integration =      0.000001422 Eh
Total energy after final integration           =   -888.998508168 Eh
Final COS-X integration done in                =    16.529 sec

----------------
TOTAL SCF ENERGY
----------------

Total Energy       :         -888.99850817 Eh          -24190.87925 eV

Components:
Nuclear Repulsion  :          709.36858001 Eh           19302.90040 eV
Electronic Energy  :        -1598.36708818 Eh          -43493.77965 eV
One Electron Energy:        -2642.14303692 Eh          -71896.36718 eV
Two Electron Energy:         1043.77594875 Eh           28402.58753 eV
Max COSX asymmetry :            0.00002019 Eh               0.00055 eV

Virial components:
Potential Energy   :        -1775.48469492 Eh          -48313.39475 eV
Kinetic Energy     :          886.48618675 Eh           24122.51551 eV
Virial Ratio       :            2.00283402


DFT components:
N(Alpha)           :       45.000002738997 electrons
N(Beta)            :       45.000002738997 electrons
N(Total)           :       90.000005477995 electrons
E(X)               :      -26.508066771233 Eh       
E(C)               :       -1.497299441962 Eh       
E(XC)              :      -28.005366213195 Eh       
DFET-embed. en.    :        0.000000000000 Eh       

---------------
SCF CONVERGENCE
---------------

  Last Energy change         ...   -7.9564e-09  Tolerance :   1.0000e-08
  Last MAX-Density change    ...    2.6645e-15  Tolerance :   1.0000e-07
  Last RMS-Density change    ...    1.7772e-17  Tolerance :   5.0000e-09
  Last Orbital Gradient      ...    1.6002e-06  Tolerance :   1.0000e-05
  Last Orbital Rotation      ...    4.7597e-06  Tolerance :   1.0000e-05

             **** THE GBW FILE WAS UPDATED (A.4.avtz.gbw) ****
             **** DENSITY A.4.avtz.scfp WAS UPDATED ****
             **** ENERGY FILE WAS UPDATED (A.4.avtz.en.tmp) ****
             **** THE GBW FILE WAS UPDATED (A.4.avtz.gbw) ****
             **** DENSITY A.4.avtz.scfp WAS UPDATED ****
----------------
ORBITAL ENERGIES
----------------

  NO   OCC          E(Eh)            E(eV) 
   0   2.0000     -90.831591     -2471.6532 
   1   2.0000     -19.814194      -539.1716 
   2   2.0000     -19.811146      -539.0887 
   3   2.0000     -15.007724      -408.3809 
   4   2.0000     -14.873010      -404.7152 
   5   2.0000     -10.770150      -293.0707 
   6   2.0000     -10.720558      -291.7212 
   7   2.0000     -10.720121      -291.7093 
   8   2.0000     -10.718886      -291.6757 
   9   2.0000     -10.718083      -291.6539 
  10   2.0000     -10.709368      -291.4167 
  11   2.0000      -8.573438      -233.2951 
  12   2.0000      -6.359565      -173.0526 
  13   2.0000      -6.357959      -173.0089 
  14   2.0000      -6.357098      -172.9854 
  15   2.0000      -1.121428       -30.5156 
  16   2.0000      -1.014897       -27.6168 
  17   2.0000      -1.005435       -27.3593 
  18   2.0000      -0.913840       -24.8669 
  19   2.0000      -0.865942       -23.5635 
  20   2.0000      -0.804211       -21.8837 
  21   2.0000      -0.784883       -21.3578 
  22   2.0000      -0.644142       -17.5280 
  23   2.0000      -0.636459       -17.3189 
  24   2.0000      -0.562290       -15.3007 
  25   2.0000      -0.522168       -14.2089 
  26   2.0000      -0.520346       -14.1593 
  27   2.0000      -0.467289       -12.7156 
  28   2.0000      -0.433683       -11.8011 
  29   2.0000      -0.431823       -11.7505 
  30   2.0000      -0.412458       -11.2236 
  31   2.0000      -0.407243       -11.0817 
  32   2.0000      -0.385931       -10.5017 
  33   2.0000      -0.375601       -10.2206 
  34   2.0000      -0.364767        -9.9258 
  35   2.0000      -0.321826        -8.7573 
  36   2.0000      -0.300261        -8.1705 
  37   2.0000      -0.278875        -7.5886 
  38   2.0000      -0.246514        -6.7080 
  39   2.0000      -0.233053        -6.3417 
  40   2.0000      -0.210309        -5.7228 
  41   2.0000      -0.198771        -5.4088 
  42   2.0000      -0.183175        -4.9844 
  43   2.0000      -0.170858        -4.6493 
  44   2.0000      -0.142450        -3.8763 
  45   0.0000       0.081723         2.2238 
  46   0.0000       0.096228         2.6185 
  47   0.0000       0.111325         3.0293 
  48   0.0000       0.123552         3.3620 
  49   0.0000       0.132152         3.5960 
  50   0.0000       0.138084         3.7575 
  51   0.0000       0.146932         3.9982 
  52   0.0000       0.154790         4.2120 
  53   0.0000       0.162472         4.4211 
  54   0.0000       0.167909         4.5690 
  55   0.0000       0.168739         4.5916 
  56   0.0000       0.178907         4.8683 
  57   0.0000       0.184957         5.0329 
  58   0.0000       0.190150         5.1742 
  59   0.0000       0.191051         5.1988 
  60   0.0000       0.203618         5.5407 
  61   0.0000       0.203867         5.5475 
  62   0.0000       0.210199         5.7198 
  63   0.0000       0.212002         5.7689 
  64   0.0000       0.214411         5.8344 
  65   0.0000       0.218653         5.9498 
  66   0.0000       0.224586         6.1113 
  67   0.0000       0.226638         6.1671 
  68   0.0000       0.231649         6.3035 
  69   0.0000       0.234901         6.3920 
  70   0.0000       0.243071         6.6143 
  71   0.0000       0.246403         6.7050 
  72   0.0000       0.255930         6.9642 
  73   0.0000       0.262578         7.1451 
  74   0.0000       0.263602         7.1730 
  75   0.0000       0.268469         7.3054 
  76   0.0000       0.270197         7.3524 
  77   0.0000       0.275989         7.5100 
  78   0.0000       0.287727         7.8295 
  79   0.0000       0.290856         7.9146 
  80   0.0000       0.298042         8.1101 
  81   0.0000       0.308414         8.3924 
  82   0.0000       0.312905         8.5146 
  83   0.0000       0.319998         8.7076 
  84   0.0000       0.321594         8.7510 
  85   0.0000       0.328235         8.9317 
  86   0.0000       0.335732         9.1357 
  87   0.0000       0.336250         9.1498 
  88   0.0000       0.345550         9.4029 
  89   0.0000       0.350023         9.5246 
  90   0.0000       0.354311         9.6413 
  91   0.0000       0.361352         9.8329 
  92   0.0000       0.366781         9.9806 
  93   0.0000       0.374993        10.2041 
  94   0.0000       0.378665        10.3040 
  95   0.0000       0.380695        10.3592 
  96   0.0000       0.383557        10.4371 
  97   0.0000       0.386672        10.5219 
  98   0.0000       0.388279        10.5656 
  99   0.0000       0.394508        10.7351 
 100   0.0000       0.401236        10.9182 
 101   0.0000       0.403737        10.9862 
 102   0.0000       0.411406        11.1949 
 103   0.0000       0.415757        11.3133 
 104   0.0000       0.421027        11.4567 
 105   0.0000       0.426901        11.6166 
 106   0.0000       0.433251        11.7894 
 107   0.0000       0.433599        11.7988 
 108   0.0000       0.438093        11.9211 
 109   0.0000       0.441742        12.0204 
 110   0.0000       0.448253        12.1976 
 111   0.0000       0.451275        12.2798 
 112   0.0000       0.456415        12.4197 
 113   0.0000       0.460504        12.5309 
 114   0.0000       0.463256        12.6058 
 115   0.0000       0.468802        12.7568 
 116   0.0000       0.469102        12.7649 
 117   0.0000       0.476043        12.9538 
 118   0.0000       0.486131        13.2283 
 119   0.0000       0.487148        13.2560 
 120   0.0000       0.502129        13.6636 
 121   0.0000       0.506958        13.7950 
 122   0.0000       0.511025        13.9057 
 123   0.0000       0.516263        14.0482 
 124   0.0000       0.519627        14.1398 
 125   0.0000       0.529930        14.4201 
 126   0.0000       0.531355        14.4589 
 127   0.0000       0.534140        14.5347 
 128   0.0000       0.539189        14.6721 
 129   0.0000       0.541422        14.7328 
 130   0.0000       0.547567        14.9001 
 131   0.0000       0.555469        15.1151 
 132   0.0000       0.561505        15.2793 
 133   0.0000       0.565570        15.3899 
 134   0.0000       0.572329        15.5739 
 135   0.0000       0.577889        15.7252 
 136   0.0000       0.581576        15.8255 
 137   0.0000       0.586416        15.9572 
 138   0.0000       0.591345        16.0913 
 139   0.0000       0.595156        16.1950 
 140   0.0000       0.602237        16.3877 
 141   0.0000       0.607126        16.5207 
 142   0.0000       0.608781        16.5658 
 143   0.0000       0.614390        16.7184 
 144   0.0000       0.616773        16.7832 
 145   0.0000       0.623021        16.9533 
 146   0.0000       0.630025        17.1439 
 147   0.0000       0.631850        17.1935 
 148   0.0000       0.635599        17.2955 
 149   0.0000       0.637401        17.3445 
 150   0.0000       0.649099        17.6629 
 151   0.0000       0.655413        17.8347 
 152   0.0000       0.663014        18.0415 
 153   0.0000       0.677647        18.4397 
 154   0.0000       0.678983        18.4761 
 155   0.0000       0.690000        18.7759 
 156   0.0000       0.694053        18.8862 
 157   0.0000       0.702003        19.1025 
 158   0.0000       0.707312        19.2469 
 159   0.0000       0.715785        19.4775 
 160   0.0000       0.718980        19.5644 
 161   0.0000       0.728013        19.8103 
 162   0.0000       0.739694        20.1281 
 163   0.0000       0.746369        20.3097 
 164   0.0000       0.749252        20.3882 
 165   0.0000       0.756754        20.5923 
 166   0.0000       0.764823        20.8119 
 167   0.0000       0.767196        20.8765 
 168   0.0000       0.776716        21.1355 
 169   0.0000       0.780950        21.2507 
 170   0.0000       0.790669        21.5152 
 171   0.0000       0.792063        21.5531 
 172   0.0000       0.799026        21.7426 
 173   0.0000       0.811638        22.0858 
 174   0.0000       0.820426        22.3249 
 175   0.0000       0.823161        22.3993 
 176   0.0000       0.830427        22.5971 
 177   0.0000       0.835896        22.7459 
 178   0.0000       0.842791        22.9335 
 179   0.0000       0.845726        23.0134 
 180   0.0000       0.852541        23.1988 
 181   0.0000       0.860877        23.4256 
 182   0.0000       0.865692        23.5567 
 183   0.0000       0.872302        23.7365 
 184   0.0000       0.881201        23.9787 
 185   0.0000       0.898044        24.4370 
 186   0.0000       0.902707        24.5639 
 187   0.0000       0.913015        24.8444 
 188   0.0000       0.916660        24.9436 
 189   0.0000       0.923640        25.1335 
 190   0.0000       0.929440        25.2914 
 191   0.0000       0.932641        25.3785 
 192   0.0000       0.941856        25.6292 
 193   0.0000       0.945562        25.7300 
 194   0.0000       0.947717        25.7887 
 195   0.0000       0.948758        25.8170 
 196   0.0000       0.960260        26.1300 
 197   0.0000       0.964378        26.2421 
 198   0.0000       0.975257        26.5381 
 199   0.0000       0.977994        26.6126 
 200   0.0000       0.983635        26.7661 
 201   0.0000       0.985667        26.8214 
 202   0.0000       1.000282        27.2191 
 203   0.0000       1.002243        27.2724 
 204   0.0000       1.008417        27.4404 
 205   0.0000       1.017493        27.6874 
 206   0.0000       1.018933        27.7266 
 207   0.0000       1.027953        27.9720 
 208   0.0000       1.035966        28.1901 
 209   0.0000       1.038543        28.2602 
 210   0.0000       1.050019        28.5725 
 211   0.0000       1.056383        28.7456 
 212   0.0000       1.063508        28.9395 
 213   0.0000       1.070220        29.1222 
 214   0.0000       1.071643        29.1609 
 215   0.0000       1.074686        29.2437 
 216   0.0000       1.082591        29.4588 
 217   0.0000       1.085250        29.5312 
 218   0.0000       1.091071        29.6895 
 219   0.0000       1.093594        29.7582 
 220   0.0000       1.097575        29.8665 
 221   0.0000       1.102797        30.0086 
 222   0.0000       1.110163        30.2091 
 223   0.0000       1.114467        30.3262 
 224   0.0000       1.119133        30.4532 
 225   0.0000       1.129574        30.7373 
 226   0.0000       1.132410        30.8144 
 227   0.0000       1.138964        30.9928 
 228   0.0000       1.142739        31.0955 
 229   0.0000       1.145536        31.1716 
 230   0.0000       1.154080        31.4041 
 231   0.0000       1.160978        31.5918 
 232   0.0000       1.169186        31.8152 
 233   0.0000       1.172891        31.9160 
 234   0.0000       1.177737        32.0478 
 235   0.0000       1.182103        32.1667 
 236   0.0000       1.183030        32.1919 
 237   0.0000       1.186621        32.2896 
 238   0.0000       1.196068        32.5467 
 239   0.0000       1.202450        32.7203 
 240   0.0000       1.208298        32.8795 
 241   0.0000       1.221231        33.2314 
 242   0.0000       1.227241        33.3949 
 243   0.0000       1.232711        33.5438 
 244   0.0000       1.239847        33.7380 
 245   0.0000       1.243861        33.8472 
 246   0.0000       1.244264        33.8582 
 247   0.0000       1.254591        34.1391 
 248   0.0000       1.256398        34.1883 
 249   0.0000       1.262871        34.3645 
 250   0.0000       1.272643        34.6304 
 251   0.0000       1.280614        34.8473 
 252   0.0000       1.283708        34.9315 
 253   0.0000       1.288768        35.0692 
 254   0.0000       1.292475        35.1700 
 255   0.0000       1.301506        35.4158 
 256   0.0000       1.306699        35.5571 
 257   0.0000       1.309682        35.6383 
 258   0.0000       1.317638        35.8548 
 259   0.0000       1.323467        36.0134 
 260   0.0000       1.332776        36.2667 
 261   0.0000       1.341344        36.4998 
 262   0.0000       1.350537        36.7500 
 263   0.0000       1.353123        36.8203 
 264   0.0000       1.364209        37.1220 
 265   0.0000       1.373674        37.3796 
 266   0.0000       1.378032        37.4981 
 267   0.0000       1.393377        37.9157 
 268   0.0000       1.397677        38.0327 
 269   0.0000       1.406906        38.2838 
 270   0.0000       1.408129        38.3171 
 271   0.0000       1.419713        38.6323 
 272   0.0000       1.428831        38.8805 
 273   0.0000       1.432606        38.9832 
 274   0.0000       1.438354        39.1396 
 275   0.0000       1.443209        39.2717 
 276   0.0000       1.458303        39.6824 
 277   0.0000       1.462589        39.7991 
 278   0.0000       1.475671        40.1551 
 279   0.0000       1.482877        40.3511 
 280   0.0000       1.489827        40.5403 
 281   0.0000       1.497362        40.7453 
 282   0.0000       1.507766        41.0284 
 283   0.0000       1.517044        41.2809 
 284   0.0000       1.517792        41.3012 
 285   0.0000       1.535893        41.7938 
 286   0.0000       1.544914        42.0393 
 287   0.0000       1.550828        42.2002 
 288   0.0000       1.556041        42.3420 
 289   0.0000       1.561044        42.4782 
 290   0.0000       1.568897        42.6918 
 291   0.0000       1.578111        42.9426 
 292   0.0000       1.585086        43.1324 
 293   0.0000       1.596750        43.4498 
 294   0.0000       1.608725        43.7756 
 295   0.0000       1.620710        44.1018 
 296   0.0000       1.626605        44.2622 
 297   0.0000       1.631088        44.3842 
 298   0.0000       1.639593        44.6156 
 299   0.0000       1.642053        44.6825 
 300   0.0000       1.660677        45.1893 
 301   0.0000       1.674792        45.5734 
 302   0.0000       1.689320        45.9687 
 303   0.0000       1.695641        46.1407 
 304   0.0000       1.718221        46.7552 
 305   0.0000       1.727841        47.0169 
 306   0.0000       1.732660        47.1481 
 307   0.0000       1.750614        47.6366 
 308   0.0000       1.760707        47.9113 
 309   0.0000       1.766599        48.0716 
 310   0.0000       1.773396        48.2566 
 311   0.0000       1.781089        48.4659 
 312   0.0000       1.794024        48.8179 
 313   0.0000       1.815938        49.4142 
 314   0.0000       1.820473        49.5376 
 315   0.0000       1.825755        49.6813 
 316   0.0000       1.833012        49.8788 
 317   0.0000       1.840520        50.0831 
 318   0.0000       1.842331        50.1324 
 319   0.0000       1.855081        50.4793 
 320   0.0000       1.869637        50.8754 
 321   0.0000       1.883583        51.2549 
 322   0.0000       1.891407        51.4678 
 323   0.0000       1.900755        51.7222 
 324   0.0000       1.907725        51.9118 
 325   0.0000       1.912069        52.0301 
 326   0.0000       1.919267        52.2259 
 327   0.0000       1.926871        52.4328 
 328   0.0000       1.941061        52.8190 
 329   0.0000       1.948237        53.0142 
 330   0.0000       1.966578        53.5133 
 331   0.0000       1.975039        53.7435 
 332   0.0000       1.987646        54.0866 
 333   0.0000       1.992457        54.2175 
 334   0.0000       2.014126        54.8072 
 335   0.0000       2.020246        54.9737 
 336   0.0000       2.031515        55.2803 
 337   0.0000       2.037582        55.4454 
 338   0.0000       2.049754        55.7766 
 339   0.0000       2.054935        55.9176 
 340   0.0000       2.067932        56.2713 
 341   0.0000       2.070736        56.3476 
 342   0.0000       2.079945        56.5982 
 343   0.0000       2.093314        56.9620 
 344   0.0000       2.100472        57.1567 
 345   0.0000       2.110962        57.4422 
 346   0.0000       2.119383        57.6713 
 347   0.0000       2.135621        58.1132 
 348   0.0000       2.139322        58.2139 
 349   0.0000       2.145252        58.3753 
 350   0.0000       2.156739        58.6879 
 351   0.0000       2.160041        58.7777 
 352   0.0000       2.172828        59.1256 
 353   0.0000       2.177493        59.2526 
 354   0.0000       2.193946        59.7003 
 355   0.0000       2.200709        59.8843 
 356   0.0000       2.207861        60.0790 
 357   0.0000       2.210637        60.1545 
 358   0.0000       2.220549        60.4242 
 359   0.0000       2.234299        60.7984 
 360   0.0000       2.239528        60.9407 
 361   0.0000       2.251534        61.2673 
 362   0.0000       2.273438        61.8634 
 363   0.0000       2.291040        62.3424 
 364   0.0000       2.297381        62.5149 
 365   0.0000       2.303380        62.6782 
 366   0.0000       2.321463        63.1702 
 367   0.0000       2.330748        63.4229 
 368   0.0000       2.332273        63.4644 
 369   0.0000       2.338217        63.6261 
 370   0.0000       2.351529        63.9884 
 371   0.0000       2.358157        64.1687 
 372   0.0000       2.379801        64.7577 
 373   0.0000       2.392566        65.1050 
 374   0.0000       2.405846        65.4664 
 375   0.0000       2.411423        65.6182 
 376   0.0000       2.418155        65.8013 
 377   0.0000       2.419909        65.8491 
 378   0.0000       2.427855        66.0653 
 379   0.0000       2.438295        66.3494 
 380   0.0000       2.441025        66.4237 
 381   0.0000       2.446984        66.5858 
 382   0.0000       2.460155        66.9442 
 383   0.0000       2.468107        67.1606 
 384   0.0000       2.484208        67.5987 
 385   0.0000       2.490690        67.7751 
 386   0.0000       2.493853        67.8612 
 387   0.0000       2.510280        68.3082 
 388   0.0000       2.520420        68.5841 
 389   0.0000       2.532773        68.9203 
 390   0.0000       2.549034        69.3627 
 391   0.0000       2.554426        69.5095 
 392   0.0000       2.564687        69.7887 
 393   0.0000       2.578778        70.1721 
 394   0.0000       2.585214        70.3473 
 395   0.0000       2.594097        70.5890 
 396   0.0000       2.606072        70.9148 
 397   0.0000       2.618459        71.2519 
 398   0.0000       2.626168        71.4617 
 399   0.0000       2.637236        71.7628 
 400   0.0000       2.657358        72.3104 
 401   0.0000       2.675479        72.8035 
 402   0.0000       2.679778        72.9205 
 403   0.0000       2.692209        73.2587 
 404   0.0000       2.704405        73.5906 
 405   0.0000       2.724123        74.1271 
 406   0.0000       2.735732        74.4431 
 407   0.0000       2.753897        74.9374 
 408   0.0000       2.759227        75.0824 
 409   0.0000       2.781600        75.6912 
 410   0.0000       2.786943        75.8366 
 411   0.0000       2.804721        76.3203 
 412   0.0000       2.832051        77.0640 
 413   0.0000       2.844867        77.4128 
 414   0.0000       2.858360        77.7799 
 415   0.0000       2.871471        78.1367 
 416   0.0000       2.878342        78.3237 
 417   0.0000       2.884755        78.4982 
 418   0.0000       2.900668        78.9312 
 419   0.0000       2.913842        79.2897 
 420   0.0000       2.929975        79.7287 
 421   0.0000       2.946205        80.1703 
 422   0.0000       2.969341        80.7999 
 423   0.0000       2.989580        81.3506 
 424   0.0000       2.999644        81.6245 
 425   0.0000       3.015292        82.0503 
 426   0.0000       3.043099        82.8069 
 427   0.0000       3.059611        83.2563 
 428   0.0000       3.080443        83.8231 
 429   0.0000       3.096821        84.2688 
 430   0.0000       3.107102        84.5485 
 431   0.0000       3.133521        85.2674 
 432   0.0000       3.158861        85.9570 
 433   0.0000       3.176684        86.4420 
 434   0.0000       3.203502        87.1717 
 435   0.0000       3.216237        87.5183 
 436   0.0000       3.225504        87.7704 
 437   0.0000       3.258631        88.6719 
 438   0.0000       3.264295        88.8260 
 439   0.0000       3.276313        89.1530 
 440   0.0000       3.289195        89.5035 
 441   0.0000       3.323872        90.4472 
 442   0.0000       3.348603        91.1201 
 443   0.0000       3.361231        91.4637 
 444   0.0000       3.377795        91.9145 
 445   0.0000       3.394271        92.3628 
 446   0.0000       3.411637        92.8354 
 447   0.0000       3.420173        93.0676 
 448   0.0000       3.425872        93.2227 
 449   0.0000       3.442982        93.6883 
 450   0.0000       3.446440        93.7824 
 451   0.0000       3.455034        94.0162 
 452   0.0000       3.461090        94.1810 
 453   0.0000       3.496138        95.1348 
 454   0.0000       3.505781        95.3971 
 455   0.0000       3.524413        95.9042 
 456   0.0000       3.546676        96.5100 
 457   0.0000       3.552668        96.6730 
 458   0.0000       3.565663        97.0266 
 459   0.0000       3.580215        97.4226 
 460   0.0000       3.587079        97.6094 
 461   0.0000       3.593764        97.7913 
 462   0.0000       3.597470        97.8921 
 463   0.0000       3.615908        98.3939 
 464   0.0000       3.617396        98.4344 
 465   0.0000       3.646186        99.2178 
 466   0.0000       3.657584        99.5279 
 467   0.0000       3.667005        99.7843 
 468   0.0000       3.692877       100.4883 
 469   0.0000       3.703188       100.7689 
 470   0.0000       3.710390       100.9648 
 471   0.0000       3.721620       101.2704 
 472   0.0000       3.743998       101.8794 
 473   0.0000       3.748461       102.0008 
 474   0.0000       3.780058       102.8606 
 475   0.0000       3.781539       102.9009 
 476   0.0000       3.787847       103.0726 
 477   0.0000       3.808746       103.6413 
 478   0.0000       3.836214       104.3887 
 479   0.0000       3.839138       104.4683 
 480   0.0000       3.866451       105.2115 
 481   0.0000       3.872856       105.3858 
 482   0.0000       3.877532       105.5130 
 483   0.0000       3.893703       105.9530 
 484   0.0000       3.901410       106.1628 
 485   0.0000       3.906641       106.3051 
 486   0.0000       3.929227       106.9197 
 487   0.0000       3.937821       107.1536 
 488   0.0000       3.950255       107.4919 
 489   0.0000       3.976578       108.2082 
 490   0.0000       3.980688       108.3200 
 491   0.0000       3.987240       108.4983 
 492   0.0000       3.992919       108.6528 
 493   0.0000       4.002452       108.9123 
 494   0.0000       4.017035       109.3091 
 495   0.0000       4.043785       110.0370 
 496   0.0000       4.056045       110.3706 
 497   0.0000       4.095032       111.4315 
 498   0.0000       4.109887       111.8357 
 499   0.0000       4.115608       111.9914 
 500   0.0000       4.136412       112.5575 
 501   0.0000       4.157084       113.1200 
 502   0.0000       4.161296       113.2346 
 503   0.0000       4.173822       113.5755 
 504   0.0000       4.192155       114.0743 
 505   0.0000       4.199042       114.2617 
 506   0.0000       4.210092       114.5624 
 507   0.0000       4.225870       114.9918 
 508   0.0000       4.245343       115.5217 
 509   0.0000       4.246234       115.5459 
 510   0.0000       4.259210       115.8990 
 511   0.0000       4.275186       116.3337 
 512   0.0000       4.283492       116.5597 
 513   0.0000       4.289231       116.7159 
 514   0.0000       4.318579       117.5145 
 515   0.0000       4.336560       118.0038 
 516   0.0000       4.349742       118.3625 
 517   0.0000       4.356244       118.5394 
 518   0.0000       4.359902       118.6390 
 519   0.0000       4.385269       119.3292 
 520   0.0000       4.399503       119.7166 
 521   0.0000       4.412087       120.0590 
 522   0.0000       4.416144       120.1694 
 523   0.0000       4.418445       120.2320 
 524   0.0000       4.426738       120.4577 
 525   0.0000       4.438276       120.7716 
 526   0.0000       4.443970       120.9266 
 527   0.0000       4.450220       121.0966 
 528   0.0000       4.473447       121.7287 
 529   0.0000       4.486146       122.0742 
 530   0.0000       4.493472       122.2736 
 531   0.0000       4.507181       122.6466 
 532   0.0000       4.514984       122.8590 
 533   0.0000       4.528728       123.2330 
 534   0.0000       4.539845       123.5355 
 535   0.0000       4.547541       123.7449 
 536   0.0000       4.582653       124.7003 
 537   0.0000       4.627113       125.9102 
 538   0.0000       4.639997       126.2607 
 539   0.0000       4.642741       126.3354 
 540   0.0000       4.653943       126.6402 
 541   0.0000       4.672928       127.1568 
 542   0.0000       4.691590       127.6647 
 543   0.0000       4.703073       127.9771 
 544   0.0000       4.729886       128.7067 
 545   0.0000       4.731913       128.7619 
 546   0.0000       4.741888       129.0333 
 547   0.0000       4.769074       129.7731 
 548   0.0000       4.800517       130.6287 
 549   0.0000       4.824389       131.2783 
 550   0.0000       4.839496       131.6894 
 551   0.0000       4.844593       131.8281 
 552   0.0000       4.854718       132.1036 
 553   0.0000       4.873145       132.6050 
 554   0.0000       4.893803       133.1672 
 555   0.0000       4.906067       133.5009 
 556   0.0000       4.917655       133.8162 
 557   0.0000       4.929466       134.1376 
 558   0.0000       4.944021       134.5336 
 559   0.0000       4.947118       134.6179 
 560   0.0000       4.968504       135.1999 
 561   0.0000       4.974825       135.3719 
 562   0.0000       4.995065       135.9226 
 563   0.0000       5.017474       136.5324 
 564   0.0000       5.041355       137.1823 
 565   0.0000       5.056790       137.6023 
 566   0.0000       5.060938       137.7151 
 567   0.0000       5.062208       137.7497 
 568   0.0000       5.085311       138.3783 
 569   0.0000       5.126147       139.4895 
 570   0.0000       5.135972       139.7569 
 571   0.0000       5.141746       139.9140 
 572   0.0000       5.154096       140.2501 
 573   0.0000       5.179794       140.9494 
 574   0.0000       5.196987       141.4172 
 575   0.0000       5.207798       141.7114 
 576   0.0000       5.208994       141.7439 
 577   0.0000       5.234935       142.4498 
 578   0.0000       5.249851       142.8557 
 579   0.0000       5.281937       143.7288 
 580   0.0000       5.287418       143.8780 
 581   0.0000       5.299656       144.2110 
 582   0.0000       5.307053       144.4122 
 583   0.0000       5.325939       144.9262 
 584   0.0000       5.350351       145.5905 
 585   0.0000       5.360264       145.8602 
 586   0.0000       5.385650       146.5510 
 587   0.0000       5.394718       146.7978 
 588   0.0000       5.413632       147.3124 
 589   0.0000       5.432716       147.8317 
 590   0.0000       5.455222       148.4441 
 591   0.0000       5.476269       149.0169 
 592   0.0000       5.496246       149.5605 
 593   0.0000       5.535441       150.6270 
 594   0.0000       5.544655       150.8777 
 595   0.0000       5.577250       151.7647 
 596   0.0000       5.600804       152.4056 
 597   0.0000       5.611869       152.7067 
 598   0.0000       5.657195       153.9401 
 599   0.0000       5.717344       155.5768 
 600   0.0000       5.749631       156.4554 
 601   0.0000       5.781050       157.3104 
 602   0.0000       5.791799       157.6029 
 603   0.0000       5.820107       158.3732 
 604   0.0000       5.844740       159.0435 
 605   0.0000       5.888732       160.2405 
 606   0.0000       5.936320       161.5355 
 607   0.0000       5.939875       161.6322 
 608   0.0000       5.977145       162.6464 
 609   0.0000       5.987582       162.9304 
 610   0.0000       6.027891       164.0273 
 611   0.0000       6.051957       164.6821 
 612   0.0000       6.065097       165.0397 
 613   0.0000       6.080501       165.4589 
 614   0.0000       6.120096       166.5363 
 615   0.0000       6.127949       166.7500 
 616   0.0000       6.179067       168.1410 
 617   0.0000       6.191457       168.4781 
 618   0.0000       6.220040       169.2559 
 619   0.0000       6.292350       171.2236 
 620   0.0000       6.316814       171.8893 
 621   0.0000       6.363715       173.1655 
 622   0.0000       6.451967       175.5669 
 623   0.0000       6.482720       176.4038 
 624   0.0000       6.495136       176.7416 
 625   0.0000       6.571259       178.8130 
 626   0.0000       6.671897       181.5516 
 627   0.0000       6.717037       182.7799 
 628   0.0000       6.729316       183.1140 
 629   0.0000       6.759507       183.9355 
 630   0.0000       6.780990       184.5201 
 631   0.0000       6.797937       184.9813 
 632   0.0000       6.830178       185.8586 
 633   0.0000       6.862406       186.7356 
 634   0.0000       6.884080       187.3254 
 635   0.0000       6.910504       188.0444 
 636   0.0000       6.945440       188.9950 
 637   0.0000       6.956058       189.2840 
 638   0.0000       6.994085       190.3187 
 639   0.0000       7.010402       190.7627 
 640   0.0000       7.028738       191.2617 
 641   0.0000       7.058722       192.0776 
 642   0.0000       7.059632       192.1024 
 643   0.0000       7.079702       192.6485 
 644   0.0000       7.081829       192.7064 
 645   0.0000       7.112260       193.5344 
 646   0.0000       7.145417       194.4367 
 647   0.0000       7.181511       195.4189 
 648   0.0000       7.216610       196.3739 
 649   0.0000       7.282468       198.1660 
 650   0.0000       7.299856       198.6392 
 651   0.0000       7.336642       199.6402 
 652   0.0000       7.343317       199.8218 
 653   0.0000       7.559308       205.6992 
 654   0.0000       7.604667       206.9335 
 655   0.0000       7.675121       208.8507 
 656   0.0000       7.681101       209.0134 
 657   0.0000       7.725634       210.2252 
 658   0.0000       7.764169       211.2738 
 659   0.0000       7.795579       212.1285 
 660   0.0000      12.631598       343.7233 
 661   0.0000      12.917437       351.5013 
 662   0.0000      13.930848       379.0776 
 663   0.0000      14.515696       394.9922 
 664   0.0000      15.816915       430.4001 
 665   0.0000      16.112040       438.4309 
 666   0.0000      17.296137       470.6518 
 667   0.0000      18.508215       503.6341 
 668   0.0000      19.329499       525.9824 
 669   0.0000      19.557274       532.1805 
 670   0.0000      20.039808       545.3109 

                    ********************************
                    * MULLIKEN POPULATION ANALYSIS *
                    ********************************

-----------------------
MULLIKEN ATOMIC CHARGES
-----------------------
   0 C :    1.057983
   1 C :   -0.664531
   2 H :    0.541065
   3 C :   -0.850798
   4 H :    0.384200
   5 C :    1.176507
   6 N :   -0.768685
   7 C :   -0.819746
   8 H :    0.461881
   9 C :   -0.952552
  10 H :    0.418286
  11 S :    1.901362
  12 O :   -1.016154
  13 O :   -1.013835
  14 N :   -1.076893
  15 H :    0.094544
  16 H :    0.063525
  17 H :    0.063841
Sum of atomic charges:   -1.0000000

--------------------------------
MULLIKEN REDUCED ORBITAL CHARGES
--------------------------------
  0 C s       :     2.754515  s :     2.754515
      pz      :     0.566494  p :     2.161330
      px      :     0.625160
      py      :     0.969675
      dz2     :    -0.003901  d :     0.079512
      dxz     :     0.145649
      dyz     :    -0.023718
      dx2y2   :    -0.039763
      dxy     :     0.001245
      f0      :     0.002328  f :    -0.053339
      f+1     :    -0.042865
      f-1     :    -0.000485
      f+2     :    -0.007116
      f-2     :    -0.004479
      f+3     :    -0.001428
      f-3     :     0.000705
  1 C s       :     3.897662  s :     3.897662
      pz      :     0.854240  p :     2.811343
      px      :     1.038572
      py      :     0.918530
      dz2     :    -0.107798  d :    -0.027569
      dxz     :     0.056543
      dyz     :     0.028266
      dx2y2   :    -0.020083
      dxy     :     0.015503
      f0      :    -0.000943  f :    -0.016905
      f+1     :    -0.021005
      f-1     :    -0.000015
      f+2     :     0.004676
      f-2     :     0.000099
      f+3     :    -0.000762
      f-3     :     0.001045
  2 H s       :     0.438634  s :     0.438634
      pz      :     0.020039  p :     0.016228
      px      :    -0.024070
      py      :     0.020259
      dz2     :     0.001441  d :     0.004073
      dxz     :    -0.000295
      dyz     :     0.001417
      dx2y2   :    -0.001053
      dxy     :     0.002564
  3 C s       :     3.676182  s :     3.676182
      pz      :     0.883261  p :     3.022996
      px      :     1.069856
      py      :     1.069880
      dz2     :     0.024581  d :     0.176479
      dxz     :     0.109452
      dyz     :     0.011677
      dx2y2   :     0.025610
      dxy     :     0.005159
      f0      :    -0.000982  f :    -0.024860
      f+1     :    -0.026742
      f-1     :     0.001231
      f+2     :     0.002841
      f-2     :    -0.001634
      f+3     :    -0.001169
      f-3     :     0.001594
  4 H s       :     0.608944  s :     0.608944
      pz      :    -0.007779  p :     0.005061
      px      :    -0.006645
      py      :     0.019484
      dz2     :     0.000101  d :     0.001795
      dxz     :     0.000523
      dyz     :     0.001157
      dx2y2   :    -0.002349
      dxy     :     0.002362
  5 C s       :     2.823584  s :     2.823584
      pz      :     0.402019  p :     2.291058
      px      :     0.993470
      py      :     0.895569
      dz2     :    -0.125850  d :    -0.242187
      dxz     :    -0.136931
      dyz     :     0.023468
      dx2y2   :    -0.005926
      dxy     :     0.003050
      f0      :    -0.007859  f :    -0.048962
      f+1     :    -0.040239
      f-1     :     0.003541
      f+2     :    -0.006949
      f-2     :     0.001116
      f+3     :    -0.000904
      f-3     :     0.002333
  6 N s       :     3.905443  s :     3.905443
      pz      :     1.126054  p :     3.786323
      px      :     1.100766
      py      :     1.559503
      dz2     :     0.014157  d :     0.071357
      dxz     :     0.018185
      dyz     :     0.029752
      dx2y2   :     0.003244
      dxy     :     0.006021
      f0      :     0.000327  f :     0.005562
      f+1     :     0.001743
      f-1     :     0.001607
      f+2     :     0.001066
      f-2     :     0.000234
      f+3     :     0.000075
      f-3     :     0.000509
  7 C s       :     3.624563  s :     3.624563
      pz      :     0.971877  p :     3.039884
      px      :     1.006140
      py      :     1.061867
      dz2     :     0.032349  d :     0.180792
      dxz     :     0.110116
      dyz     :     0.011768
      dx2y2   :     0.018170
      dxy     :     0.008389
      f0      :    -0.000480  f :    -0.025492
      f+1     :    -0.027683
      f-1     :     0.000928
      f+2     :     0.002546
      f-2     :    -0.001743
      f+3     :    -0.000847
      f-3     :     0.001788
  8 H s       :     0.534396  s :     0.534396
      pz      :    -0.010098  p :     0.002188
      px      :    -0.007660
      py      :     0.019946
      dz2     :    -0.000020  d :     0.001535
      dxz     :     0.000585
      dyz     :     0.001064
      dx2y2   :    -0.002601
      dxy     :     0.002508
  9 C s       :     3.946102  s :     3.946102
      pz      :     0.849110  p :     2.896741
      px      :     1.111436
      py      :     0.936194
      dz2     :    -0.012979  d :     0.131830
      dxz     :     0.113816
      dyz     :     0.025058
      dx2y2   :    -0.008066
      dxy     :     0.014002
      f0      :    -0.000307  f :    -0.022121
      f+1     :    -0.026434
      f-1     :     0.000522
      f+2     :     0.004400
      f-2     :     0.000085
      f+3     :    -0.001599
      f-3     :     0.001213
 10 H s       :     0.566969  s :     0.566969
      pz      :     0.007320  p :     0.015049
      px      :    -0.007557
      py      :     0.015286
      dz2     :    -0.001143  d :    -0.000304
      dxz     :    -0.001255
      dyz     :     0.001111
      dx2y2   :    -0.001248
      dxy     :     0.002230
 11 S s       :     5.129788  s :     5.129788
      pz      :     2.785466  p :     8.047321
      px      :     2.594505
      py      :     2.667350
      dz2     :     0.277887  d :     0.836317
      dxz     :     0.106961
      dyz     :     0.132965
      dx2y2   :     0.126276
      dxy     :     0.192228
      f0      :     0.003810  f :     0.085212
      f+1     :     0.006373
      f-1     :     0.007243
      f+2     :     0.010729
      f-2     :     0.008862
      f+3     :     0.025192
      f-3     :     0.023003
 12 O s       :     3.969286  s :     3.969286
      pz      :     1.849897  p :     4.979671
      px      :     1.808809
      py      :     1.320965
      dz2     :     0.004609  d :     0.060268
      dxz     :     0.002948
      dyz     :     0.019330
      dx2y2   :     0.017977
      dxy     :     0.015405
      f0      :     0.000834  f :     0.006929
      f+1     :     0.000172
      f-1     :     0.000893
      f+2     :     0.001184
      f-2     :     0.000529
      f+3     :     0.001529
      f-3     :     0.001788
 13 O s       :     3.939827  s :     3.939827
      pz      :     1.805942  p :     5.009832
      px      :     1.379463
      py      :     1.824427
      dz2     :     0.007757  d :     0.057340
      dxz     :     0.016154
      dyz     :     0.003234
      dx2y2   :     0.016028
      dxy     :     0.014167
      f0      :     0.000556  f :     0.006836
      f+1     :     0.001673
      f-1     :     0.000179
      f+2     :     0.000961
      f-2     :     0.000562
      f+3     :     0.001423
      f-3     :     0.001481
 14 N s       :     3.925575  s :     3.925575
      pz      :     1.612101  p :     4.057711
      px      :     1.314472
      py      :     1.131139
      dz2     :     0.011548  d :     0.087610
      dxz     :     0.018552
      dyz     :     0.006981
      dx2y2   :     0.024375
      dxy     :     0.026155
      f0      :     0.000609  f :     0.005996
      f+1     :     0.001532
      f-1     :     0.001042
      f+2     :     0.000545
      f-2     :     0.000855
      f+3     :     0.001389
      f-3     :     0.000025
 15 H s       :     0.783612  s :     0.783612
      pz      :     0.057321  p :     0.102205
      px      :     0.026930
      py      :     0.017955
      dz2     :     0.000063  d :     0.019638
      dxz     :     0.001817
[...]
      f-3     :     0.028736
  1 C s       :     2.486728  s :     2.486728
      pz      :     0.856461  p :     2.278027
      px      :     0.848093
      py      :     0.573473
      dz2     :     0.202240  d :     0.743954
      dxz     :     0.252062
      dyz     :     0.131368
      dx2y2   :     0.092695
      dxy     :     0.065589
      f0      :     0.055994  f :     0.352731
      f+1     :     0.131107
      f-1     :     0.047365
      f+2     :     0.035322
      f-2     :     0.030199
      f+3     :     0.026943
      f-3     :     0.025801
  2 H s       :     0.657587  s :     0.657587
      pz      :     0.108985  p :     0.313188
      px      :     0.126436
      py      :     0.077767
      dz2     :     0.055131  d :     0.222782
      dxz     :     0.055351
      dyz     :     0.021070
      dx2y2   :     0.048384
      dxy     :     0.042847
  3 C s       :     2.478884  s :     2.478884
      pz      :     0.839620  p :     2.297494
      px      :     0.817466
      py      :     0.640408
      dz2     :     0.178666  d :     0.689914
      dxz     :     0.255201
      dyz     :     0.103307
      dx2y2   :     0.088768
      dxy     :     0.063972
      f0      :     0.055642  f :     0.338671
      f+1     :     0.125394
      f-1     :     0.044408
      f+2     :     0.034589
      f-2     :     0.026012
      f+3     :     0.026645
      f-3     :     0.025981
  4 H s       :     0.667808  s :     0.667808
      pz      :     0.094808  p :     0.304841
      px      :     0.117898
      py      :     0.092135
      dz2     :     0.050691  d :     0.216194
      dxz     :     0.053121
      dyz     :     0.020800
      dx2y2   :     0.046036
      dxy     :     0.045546
  5 C s       :     2.452640  s :     2.452640
      pz      :     0.740533  p :     2.204432
      px      :     0.872730
      py      :     0.591169
      dz2     :     0.273513  d :     1.039495
      dxz     :     0.271547
      dyz     :     0.199712
      dx2y2   :     0.151886
      dxy     :     0.142837
      f0      :     0.071186  f :     0.577029
      f+1     :     0.221546
      f-1     :     0.088065
      f+2     :     0.050683
      f-2     :     0.063530
      f+3     :     0.047466
      f-3     :     0.034552
  6 N s       :     2.663233  s :     2.663233
      pz      :     0.942500  p :     2.996490
      px      :     0.937446
      py      :     1.116545
      dz2     :     0.100373  d :     0.392584
      dxz     :     0.146872
      dyz     :     0.091018
      dx2y2   :     0.023736
      dxy     :     0.030584
      f0      :     0.028334  f :     0.120984
      f+1     :     0.041607
      f-1     :     0.027364
      f+2     :     0.006064
      f-2     :     0.011699
      f+3     :     0.000504
      f-3     :     0.005412
  7 C s       :     2.479031  s :     2.479031
      pz      :     0.838724  p :     2.298100
      px      :     0.817805
      py      :     0.641571
      dz2     :     0.184451  d :     0.691344
      dxz     :     0.248458
      dyz     :     0.108055
      dx2y2   :     0.089879
      dxy     :     0.060501
      f0      :     0.056938  f :     0.338677
      f+1     :     0.124555
      f-1     :     0.044152
      f+2     :     0.033917
      f-2     :     0.029067
      f+3     :     0.026321
      f-3     :     0.023727
  8 H s       :     0.667972  s :     0.667972
      pz      :     0.092957  p :     0.305436
      px      :     0.120092
      py      :     0.092387
      dz2     :     0.047769  d :     0.216279
      dxz     :     0.055424
      dyz     :     0.018275
      dx2y2   :     0.046638
      dxy     :     0.048173
  9 C s       :     2.487335  s :     2.487335
      pz      :     0.852649  p :     2.279022
      px      :     0.850469
      py      :     0.575903
      dz2     :     0.199099  d :     0.741122
      dxz     :     0.258136
      dyz     :     0.123641
      dx2y2   :     0.091206
      dxy     :     0.069040
      f0      :     0.056574  f :     0.353189
      f+1     :     0.130889
      f-1     :     0.048066
      f+2     :     0.035782
      f-2     :     0.026914
      f+3     :     0.027455
      f-3     :     0.027510
 10 H s       :     0.658266  s :     0.658266
      pz      :     0.118743  p :     0.321954
      px      :     0.123982
      py      :     0.079229
      dz2     :     0.067820  d :     0.234682
      dxz     :     0.054588
      dyz     :     0.022404
      dx2y2   :     0.047766
      dxy     :     0.042105
 11 S s       :     4.502097  s :     4.502097
      pz      :     2.665247  p :     8.113837
      px      :     2.729820
      py      :     2.718771
      dz2     :     0.493099  d :     2.287026
      dxz     :     0.377223
      dyz     :     0.350363
      dx2y2   :     0.535860
      dxy     :     0.530481
      f0      :     0.137265  f :     1.242750
      f+1     :     0.167129
      f-1     :     0.124469
      f+2     :     0.161578
      f-2     :     0.115608
      f+3     :     0.259789
      f-3     :     0.276912
 12 O s       :     3.339902  s :     3.339902
      pz      :     1.497247  p :     4.401307
      px      :     1.495577
      py      :     1.408483
      dz2     :     0.030611  d :     0.222875
      dxz     :     0.008283
      dyz     :     0.056872
      dx2y2   :     0.065011
      dxy     :     0.062097
      f0      :     0.005859  f :     0.068795
      f+1     :     0.002098
      f-1     :     0.012904
      f+2     :     0.009117
      f-2     :     0.004444
      f+3     :     0.017306
      f-3     :     0.017067
 13 O s       :     3.328974  s :     3.328974
      pz      :     1.491785  p :     4.403456
      px      :     1.411707
      py      :     1.499964
      dz2     :     0.039891  d :     0.224388
      dxz     :     0.057692
      dyz     :     0.009379
      dx2y2   :     0.061623
      dxy     :     0.055802
      f0      :     0.005914  f :     0.067062
      f+1     :     0.014240
      f-1     :     0.001680
      f+2     :     0.010790
      f-2     :     0.005350
      f+3     :     0.015063
      f-3     :     0.014025
 14 N s       :     2.915181  s :     2.915181
      pz      :     1.159109  p :     3.376601
      px      :     1.175270
      py      :     1.042222
      dz2     :     0.055001  d :     0.326415
      dxz     :     0.048212
      dyz     :     0.038068
      dx2y2   :     0.088329
      dxy     :     0.096806
      f0      :     0.009023  f :     0.112082
      f+1     :     0.015556
      f-1     :     0.012184
      f+2     :     0.009030
      f-2     :     0.018776
      f+3     :     0.025735
      f-3     :     0.021778
 15 H s       :     0.677737  s :     0.677737
      pz      :     0.167695  p :     0.564964
      px      :     0.189289
      py      :     0.207980
      dz2     :     0.033650  d :     0.351765
      dxz     :     0.018658
      dyz     :     0.096720
      dx2y2   :     0.090352
      dxy     :     0.112384
 16 H s       :     0.594268  s :     0.594268
      pz      :     0.113310  p :     0.431835
      px      :     0.157993
      py      :     0.160532
      dz2     :     0.064212  d :     0.298701
      dxz     :     0.063229
      dyz     :     0.025691
      dx2y2   :     0.075111
      dxy     :     0.070458
 17 H s       :     0.594350  s :     0.594350
      pz      :     0.111767  p :     0.431729
      px      :     0.158379
      py      :     0.161583
      dz2     :     0.060973  d :     0.298911
      dxz     :     0.064641
      dyz     :     0.024623
      dx2y2   :     0.077690
      dxy     :     0.070983


                      *****************************
                      * MAYER POPULATION ANALYSIS *
                      *****************************

  NA   - Mulliken gross atomic population
  ZA   - Total nuclear charge
  QA   - Mulliken gross atomic charge
  VA   - Mayer's total valence
  BVA  - Mayer's bonded valence
  FA   - Mayer's free valence

  ATOM       NA         ZA         QA         VA         BVA        FA
  0 C      4.9420     6.0000     1.0580     2.7229     2.7229     0.0000
  1 C      6.6645     6.0000    -0.6645     2.6438     2.6438    -0.0000
  2 H      0.4589     1.0000     0.5411     0.5402     0.5402    -0.0000
  3 C      6.8508     6.0000    -0.8508     2.9823     2.9823    -0.0000
  4 H      0.6158     1.0000     0.3842     0.8293     0.8293    -0.0000
  5 C      4.8235     6.0000     1.1765     2.3344     2.3344     0.0000
  6 N      7.7687     7.0000    -0.7687     2.5227     2.5227    -0.0000
  7 C      6.8197     6.0000    -0.8197     3.0582     3.0582     0.0000
  8 H      0.5381     1.0000     0.4619     0.7087     0.7087     0.0000
  9 C      6.9526     6.0000    -0.9526     3.0272     3.0272    -0.0000
 10 H      0.5817     1.0000     0.4183     0.8174     0.8174    -0.0000
 11 S     14.0986    16.0000     1.9014     4.6439     4.6439    -0.0000
 12 O      9.0162     8.0000    -1.0162     1.4353     1.4353    -0.0000
 13 O      9.0138     8.0000    -1.0138     1.3560     1.3560    -0.0000
 14 N      8.0769     7.0000    -1.0769     2.3711     2.3711    -0.0000
 15 H      0.9055     1.0000     0.0945     1.1185     1.1185     0.0000
 16 H      0.9365     1.0000     0.0635     1.0701     1.0701     0.0000
 17 H      0.9362     1.0000     0.0638     1.0742     1.0742    -0.0000

  Mayer bond orders larger than 0.100000
B(  0-C ,  1-C ) :   0.9708 B(  0-C ,  2-H ) :   0.1195 B(  0-C ,  3-C ) :  -0.1211 
B(  0-C ,  9-C ) :   0.6908 B(  0-C , 11-S ) :   0.8569 B(  0-C , 13-O ) :   0.1805 
B(  1-C ,  2-H ) :   0.4950 B(  1-C ,  3-C ) :   1.1925 B(  1-C ,  5-C ) :  -0.1055 
B(  1-C ,  9-C ) :   0.1780 B(  3-C ,  4-H ) :   0.8607 B(  3-C ,  5-C ) :   1.0142 
B(  3-C ,  7-C ) :   0.1273 B(  5-C ,  6-N ) :   0.3752 B(  5-C ,  7-C ) :   1.0822 
B(  6-N , 16-H ) :   1.0865 B(  6-N , 17-H ) :   1.0800 B(  7-C ,  8-H ) :   0.6910 
B(  7-C ,  9-C ) :   1.3068 B(  9-C , 10-H ) :   0.7628 B(  9-C , 13-O ) :  -0.1002 
B( 11-S , 12-O ) :   1.3038 B( 11-S , 13-O ) :   1.1889 B( 11-S , 14-N ) :   1.2146 
B( 11-S , 15-H ) :   0.1178 B( 14-N , 15-H ) :   0.9493 

-------
TIMINGS
-------

Total SCF time: 0 days 0 hours 1 min 56 sec 

Total time                  ....     116.684 sec
Sum of individual times     ....     115.263 sec  ( 98.8%)

Fock matrix formation       ....     111.078 sec  ( 95.2%)
  Split-RI-J                ....       6.685 sec  (  6.0% of F)
  Chain of spheres X        ....      90.035 sec  ( 81.1% of F)
  XC integration            ....      13.791 sec  ( 12.4% of F)
    Basis function eval.    ....       2.351 sec  ( 17.0% of XC)
    Density eval.           ....       5.017 sec  ( 36.4% of XC)
    XC-Functional eval.     ....       0.167 sec  (  1.2% of XC)
    XC-Potential eval.      ....       5.463 sec  ( 39.6% of XC)
Diagonalization             ....       0.812 sec  (  0.7%)
Density matrix formation    ....       0.076 sec  (  0.1%)
Population analysis         ....       0.093 sec  (  0.1%)
Initial guess               ....       0.694 sec  (  0.6%)
Orbital Transformation      ....       0.000 sec  (  0.0%)
Orbital Orthonormalization  ....       0.000 sec  (  0.0%)
DIIS solution               ....       0.421 sec  (  0.4%)
SOSCF solution              ....       0.595 sec  (  0.5%)
Grid generation             ....       1.494 sec  (  1.3%)

Maximum memory used throughout the entire SCF-calculation: 145.0 MB


           ************************************************************
           *        Program running with 8 parallel MPI-processes     *
           *              working on a common directory               *
           ************************************************************

------------------------------------------------------------------------------
                                ORCA  MP2 
------------------------------------------------------------------------------

Freezing NCore=30 chemical core electrons

   <<< Use J-auxbasis for calculation of Separable RI-J derivative contributions (Dim=618) >>> 


-------------
RI-MP2 ENERGY
-------------
Dimension of the basis                    ...  671
Memory devoted to MP2                     ... 5000 MB   
Data format for buffers                   ... DOUBLE
Compression type for matrix containers    ... UNCOMPRESSED
Scaling for aa/bb pairs                   ...   2.500e-01
Scaling for ab pairs                      ...   5.300e-01
Overall scaling of the MP2 energy         ...   1.000e+00
Calculating two index integrals           ... done (    0.028 sec)
Cholesky decomposition of V**-1           ... done (    0.213 sec)

-----------------
RI-TRANSFORMATION (AUX index driven)
-----------------

Dimension of the orbital-basis         ... 671
Dimension of the aux-basis             ... 1529
Transformation of internal/external MOs...   15-  44 to   45- 670
Number Format for Storage              ... Double (8 Byte)
Integral mode                          ... Direct

First Phase: integral generation and transformation of MO indices
  Aux angular momentum 0               ... done (    0.221 sec)
  Aux angular momentum 1               ... done (    0.401 sec)
  Aux angular momentum 2               ... done (    0.566 sec)
  Aux angular momentum 3               ... done (    0.545 sec)
  Aux angular momentum 4               ... done (    0.275 sec)
Closing buffer VIA ( 0.21 GB; CompressionRatio= 1.00)
  Phase 1 completed in     2.221 sec
Second Phase: sorting and transformation of aux index

IA-Transformation
Memory available                       ... 4928 MB 
Max. # MO pairs treated in a batch     ... 4    
# of internal orbitals                 ... 30
# batches for internal orbitals        ... 1
Closing buffer IAV ( 0.21 GB; CompressionRatio= 1.00)
(ia|v) transformation done in     0.318 sec

  Phase 2 completed in     0.508 sec
RI-Integral transformation completed in     2.733 sec
Opening buffers                              ... done

Starting loop over batches of integrals:

Operator 0  - window                       ... ( 15- 44)x( 45-670)
Operator 0  - Memory available             ...  5000 MB
Operator 0  - Memory needed per MO         ...   7.3 MB
Operator 0  - Number of orbitals per batch ... 4
Operator 0  - Number of batches            ... 1

OPERATOR  0   PASS   0:  MOs    15 ...   18 +   19 ...   22 +   23 ...   26 +   27 ...   30
                            +   31 ...   34 +   35 ...   38 +   39 ...   42 +   43 ...   44
  Reading integrals       ... ok
  Internal MO  17
Time spent in pair loops =     0.274 sec
Deleting buffer (Ka|jb)[aa] ...done

-----------------------------------------------
 RI-MP2 CORRELATION ENERGY:     -1.073893792 Eh
-----------------------------------------------


-------
TIMINGS
-------

Total time                :    5.611 sec
Integral trafo            :    2.747 sec ( 49.0%)
I/O of integrals          :    0.015 sec (  0.3%)
K(i,j) Operators          :    0.206 sec (  3.7%)
T(i,j) pair energies      :    0.032 sec (  0.6%)
V-calculation             :    0.028 sec (  0.5%)
V**(-1/2)                 :    0.213 sec (  3.8%)
Gamma(ia|P)               :    0.000 sec (  0.0%)
Gamma-Trafo               :    0.000 sec (  0.0%)
D(virtual)                :    0.000 sec (  0.0%)
D(internal)               :    0.000 sec (  0.0%)
W(virtual)                :    0.000 sec (  0.0%)
W(internal)               :    0.000 sec (  0.0%)
L(virtual)                :    0.000 sec (  0.0%)
L(internal)               :    0.000 sec (  0.0%)
G(D)                      :    0.000 sec (  0.0%)
G(Z)                      :    0.000 sec (  0.0%)
Z-Vector Solution         :    0.000 sec (  0.0%)
3-Index Derivative        :    0.000 sec (  0.0%)
2-Index Derivative        :    0.000 sec (  0.0%)
Separable Gradient (RIJ)  :    0.000 sec (  0.0%)
Separable Gradient (COSX) :    0.000 sec (  0.0%)


---------------------------------------
MP2 TOTAL ENERGY:     -890.072401961 Eh
---------------------------------------

Maximum memory used throughout the entire MP2-calculation: 160.0 MB


-------------------------------------------------------------------------------
                          DFT DISPERSION CORRECTION                            
                                                                               
                              DFTD3 V3.1  Rev 1                                
                          USING Becke-Johnson damping                          
-------------------------------------------------------------------------------
The DSD-PBEP86 functional is recognized
Active option DFTDOPT                   ...         4   

molecular C6(AA) [au] = 4745.462424 


            DFT-D V3
 parameters
 s6 scaling factor         :     0.4180 
 a1 scaling factor         :     0.0000 
 s8 scaling factor         :     0.0000 
 a2 scaling factor         :     5.6500 
 ad hoc parameters k1-k3   :    16.0000     1.3333    -4.0000 

 Edisp/kcal,au: -8.388630606240  -0.013368132368 
 E6   /kcal   :  -8.388630606 
 E8   /kcal   :  -0.000000000 
 % E8         :   0.000000000 

-------------------------   ----------------
Dispersion correction           -0.013368132
-------------------------   ----------------


-------------------------   --------------------
FINAL SINGLE POINT ENERGY      -890.085770092902
-------------------------   --------------------


                            ***************************************
                            *     ORCA property calculations      *
                            ***************************************


  WARNING: The energy has been calculated at the MP2 level but the densities
           used in the property calculations are still SCF densities
           MP2 response densities have not been calculated 
           use %mp2 Density relaxed end
           or  %mp2 Density unrelaxed end

                                    ---------------------
                                    Active property flags
                                    ---------------------
   (+) Dipole Moment


------------------------------------------------------------------------------
                       ORCA ELECTRIC PROPERTIES CALCULATION
------------------------------------------------------------------------------

Dipole Moment Calculation                       ... on
Quadrupole Moment Calculation                   ... off
Polarizability Calculation                      ... off
GBWName                                         ... A.4.avtz.gbw
Electron density                                ... A.4.avtz.scfp
The origin for moment calculation is the CENTER OF MASS  = (-2.682697,  1.228756 -1.868390)

-------------
DIPOLE MOMENT
-------------
                                X             Y             Z
Electronic contribution:      0.69372      -1.78093       6.79186
Nuclear contribution   :     -0.34836       2.22447     -11.05034
                        -----------------------------------------
Total Dipole Moment    :      0.34536       0.44355      -4.25848
                        -----------------------------------------
Magnitude (a.u.)       :      4.29542
Magnitude (Debye)      :     10.91810



--------------------
Rotational spectrum 
--------------------
 
Rotational constants in cm-1:     0.087795     0.018685     0.017002 
Rotational constants in MHz :  2632.035395   560.147895   509.692438 

 Dipole components along the rotational axes: 
x,y,z [a.u.] :    -4.289813    -0.214692    -0.045491 
x,y,z [Debye]:   -10.903838    -0.545703    -0.115628 

 

Timings for individual modules:

Sum of individual times         ...      127.670 sec (=   2.128 min)
GTO integral calculation        ...        2.678 sec (=   0.045 min)   2.1 %
SCF iterations                  ...      118.019 sec (=   1.967 min)  92.4 %
MP2 module                      ...        6.974 sec (=   0.116 min)   5.5 %
                             ****ORCA TERMINATED NORMALLY****
TOTAL RUN TIME: 0 days 0 hours 2 minutes 9 seconds 802 msec
