
                                 *****************
                                 * O   R   C   A *
                                 *****************

                                            #,                                       
                                            ###                                      
                                            ####                                     
                                            #####                                    
                                            ######                                   
                                           ########,                                 
                                     ,,################,,,,,                         
                               ,,#################################,,                 
                          ,,##########################################,,             
                       ,#########################################, ''#####,          
                    ,#############################################,,   '####,        
                  ,##################################################,,,,####,       
                ,###########''''           ''''###############################       
              ,#####''   ,,,,##########,,,,          '''####'''          '####       
            ,##' ,,,,###########################,,,                        '##       
           ' ,,###''''                  '''############,,,                           
         ,,##''                                '''############,,,,        ,,,,,,###''
      ,#''                                            '''#######################'''  
     '                                                          ''''####''''         
             ,#######,   #######,   ,#######,      ##                                
            ,#'     '#,  ##    ##  ,#'     '#,    #''#        ######   ,####,        
            ##       ##  ##   ,#'  ##            #'  '#       #        #'  '#        
            ##       ##  #######   ##           ,######,      #####,   #    #        
            '#,     ,#'  ##    ##  '#,     ,#' ,#      #,         ##   #,  ,#        
             '#######'   ##     ##  '#######'  #'      '#     #####' # '####'        



                  #######################################################
                  #                        -***-                        #
                  #          Department of theory and spectroscopy      #
                  #    Directorship and core code : Frank Neese         #
                  #        Max Planck Institute fuer Kohlenforschung    #
                  #                Kaiser Wilhelm Platz 1               #
                  #                 D-45470 Muelheim/Ruhr               #
                  #                      Germany                        #
                  #                                                     #
                  #                  All rights reserved                #
                  #                        -***-                        #
                  #######################################################


                         Program Version 5.0.3 -  RELEASE  -


 With contributions from (in alphabetic order):
   Daniel Aravena         : Magnetic Suceptibility
   Michael Atanasov       : Ab Initio Ligand Field Theory (pilot matlab implementation)
   Alexander A. Auer      : GIAO ZORA, VPT2 properties, NMR spectrum
   Ute Becker             : Parallelization
   Giovanni Bistoni       : ED, misc. LED, open-shell LED, HFLD
   Martin Brehm           : Molecular dynamics
   Dmytro Bykov           : SCF Hessian
   Vijay G. Chilkuri      : MRCI spin determinant printing, contributions to CSF-ICE
   Dipayan Datta          : RHF DLPNO-CCSD density
   Achintya Kumar Dutta   : EOM-CC, STEOM-CC
   Dmitry Ganyushin       : Spin-Orbit,Spin-Spin,Magnetic field MRCI
   Miquel Garcia          : C-PCM and meta-GGA Hessian, CC/C-PCM, Gaussian charge scheme
   Yang Guo               : DLPNO-NEVPT2, F12-NEVPT2, CIM, IAO-localization
   Andreas Hansen         : Spin unrestricted coupled pair/coupled cluster methods
   Benjamin Helmich-Paris : MC-RPA, TRAH-SCF, COSX integrals
   Lee Huntington         : MR-EOM, pCC
   Robert Izsak           : Overlap fitted RIJCOSX, COSX-SCS-MP3, EOM
   Marcus Kettner         : VPT2
   Christian Kollmar      : KDIIS, OOCD, Brueckner-CCSD(T), CCSD density, CASPT2, CASPT2-K
   Simone Kossmann        : Meta GGA functionals, TD-DFT gradient, OOMP2, MP2 Hessian
   Martin Krupicka        : Initial AUTO-CI
   Lucas Lang             : DCDCAS
   Marvin Lechner         : AUTO-CI (C++ implementation), FIC-MRCC
   Dagmar Lenk            : GEPOL surface, SMD
   Dimitrios Liakos       : Extrapolation schemes; Compound Job, initial MDCI parallelization
   Dimitrios Manganas     : Further ROCIS development; embedding schemes
   Dimitrios Pantazis     : SARC Basis sets
   Anastasios Papadopoulos: AUTO-CI, single reference methods and gradients
   Taras Petrenko         : DFT Hessian,TD-DFT gradient, ASA, ECA, R-Raman, ABS, FL, XAS/XES, NRVS
   Peter Pinski           : DLPNO-MP2, DLPNO-MP2 Gradient
   Christoph Reimann      : Effective Core Potentials
   Marius Retegan         : Local ZFS, SOC
   Christoph Riplinger    : Optimizer, TS searches, QM/MM, DLPNO-CCSD(T), (RO)-DLPNO pert. Triples
   Tobias Risthaus        : Range-separated hybrids, TD-DFT gradient, RPA, STAB
   Michael Roemelt        : Original ROCIS implementation
   Masaaki Saitow         : Open-shell DLPNO-CCSD energy and density
   Barbara Sandhoefer     : DKH picture change effects
   Avijit Sen             : IP-ROCIS
   Kantharuban Sivalingam : CASSCF convergence, NEVPT2, FIC-MRCI
   Bernardo de Souza      : ESD, SOC TD-DFT
   Georgi Stoychev        : AutoAux, RI-MP2 NMR, DLPNO-MP2 response
   Willem Van den Heuvel  : Paramagnetic NMR
   Boris Wezisla          : Elementary symmetry handling
   Frank Wennmohs         : Technical directorship


 We gratefully acknowledge several colleagues who have allowed us to
 interface, adapt or use parts of their codes:
   Stefan Grimme, W. Hujo, H. Kruse, P. Pracht,  : VdW corrections, initial TS optimization,
                  C. Bannwarth, S. Ehlert          DFT functionals, gCP, sTDA/sTD-DF
   Ed Valeev, F. Pavosevic, A. Kumar             : LibInt (2-el integral package), F12 methods
   Garnet Chan, S. Sharma, J. Yang, R. Olivares  : DMRG
   Ulf Ekstrom                                   : XCFun DFT Library
   Mihaly Kallay                                 : mrcc  (arbitrary order and MRCC methods)
   Jiri Pittner, Ondrej Demel                    : Mk-CCSD
   Frank Weinhold                                : gennbo (NPA and NBO analysis)
   Christopher J. Cramer and Donald G. Truhlar   : smd solvation model
   Lars Goerigk                                  : TD-DFT with DH, B97 family of functionals
   V. Asgeirsson, H. Jonsson                     : NEB implementation
   FAccTs GmbH                                   : IRC, NEB, NEB-TS, DLPNO-Multilevel, CI-OPT
                                                   MM, QMMM, 2- and 3-layer-ONIOM, Crystal-QMMM,
                                                   LR-CPCM, SF, NACMEs, symmetry and pop. for TD-DFT,
                                                   nearIR, NL-DFT gradient (VV10), updates on ESD,
                                                   ML-optimized integration grids
   S Lehtola, MJT Oliveira, MAL Marques          : LibXC Library
   Liviu Ungur et al                             : ANISO software


 Your calculation uses the libint2 library for the computation of 2-el integrals
 For citations please refer to: http://libint.valeyev.net

 Your ORCA version has been built with support for libXC version: 5.1.0
 For citations please refer to: https://tddft.org/programs/libxc/

 This ORCA versions uses:
   CBLAS   interface :  Fast vector & matrix operations
   LAPACKE interface :  Fast linear algebra routines
   SCALAPACK package :  Parallel linear algebra routines
   Shared memory     :  Shared parallel matrices
   BLAS/LAPACK       :  OpenBLAS 0.3.15  USE64BITINT DYNAMIC_ARCH NO_AFFINITY SkylakeX SINGLE_THREADED
        Core in use  :  SkylakeX
   Copyright (c) 2011-2014, The OpenBLAS Project


Your calculation utilizes the atom-pairwise dispersion correction
with the Becke-Johnson damping scheme (D3BJ)
Cite in your paper:
S.Grimme, S.Ehrlich, L.Goerigk, J Comput Chem, (2011), 32, 1456–1465 
S.Grimme, J.Antony, S.Ehrlich and H.Krieg, J.Chem.Phys., 132, (2010), 154104 
   

================================================================================

----- Orbital basis set information -----
Your calculation utilizes the basis: aug-cc-pVTZ 
    H, B-Ne : Obtained from the ccRepo (grant-hill.group.shef.ac.uk/ccrepo) Feb. 2017
              R. A. Kendall, T. H. Dunning, Jr., R. J. Harrison, J. Chem. Phys. 96, 6796 (1992)
         He : Obtained from the ccRepo (grant-hill.group.shef.ac.uk/ccrepo) Feb. 2017
              D. E. Woon, T. H. Dunning, Jr., J. Chem. Phys. 100, 2975 (1994)
  Li-Be, Na : Obtained from the ccRepo (grant-hill.group.shef.ac.uk/ccrepo) Feb. 2017
              B. P. Prascher, D. E. Woon, K. A. Peterson, T. H. Dunning, Jr., A. K. Wilson, Theor. Chem. Acc. 128, 69 (2011)
         Mg : Obtained from the Peterson Research Group Website (tyr0.chem.wsu.edu/~kipeters) Feb. 2017
              B. P. Prascher, D. E. Woon, K. A. Peterson, T. H. Dunning, Jr., A. K. Wilson, Theor. Chem. Acc. 128, 69 (2011)
      Al-Ar : Obtained from the ccRepo (grant-hill.group.shef.ac.uk/ccrepo) Feb. 2017
              D. E. Woon, T. H. Dunning, Jr., J. Chem. Phys. 98, 1358 (1993)
      Sc-Zn : Obtained from the ccRepo (grant-hill.group.shef.ac.uk/ccrepo) Feb. 2017
              N. B. Balabanov, K. A. Peterson, J. Chem. Phys. 123, 064107 (2005)
              N. B. Balabanov, K. A. Peterson, J. Chem. Phys. 125, 074110 (2006)
      Ga-Kr : Obtained from the ccRepo (grant-hill.group.shef.ac.uk/ccrepo) Feb. 2017
              A. K. Wilson, D. E. Woon, K. A. Peterson, T. H. Dunning, Jr., J. Chem. Phys. 110, 7667 (1999)
     Ag, Au : Obtained from the Peterson Research Group Website (tyr0.chem.wsu.edu/~kipeters) Feb. 2017
              K. A. Peterson, C. Puzzarini, Theor. Chem. Acc. 114, 283 (2005)

----- AuxJ basis set information -----
Your calculation utilizes the auxiliary basis: def2/J
   F. Weigend, Phys. Chem. Chem. Phys. 8, 1057 (2006).

----- AuxC basis set information -----
Your calculation utilizes the auxiliary basis: aug-cc-pVTZ/C 
  H-He, B-F, Al-Ar, Ga-Kr : Obtained from the EMSL Basis Set Exchange (bse.pnl.gov) Feb. 2017
                            F. Weigend, A. Kohn, C. Hattig, J. Chem. Phys. 116, 3175 (2002)
                   Be, Mg : Obtained from the TURBOMOLE 7.0 basis set library
                            C. Haettig, Phys. Chem. Chem. Phys. 7, 59 (2005)
                       Ne : Obtained from the EMSL Basis Set Exchange (bse.pnl.gov) Feb. 2017
                            C. Haettig, Phys. Chem. Chem. Phys. 7, 59 (2005)
                            F. Weigend, A. Kohn, C. Hattig, J. Chem. Phys. 116, 3175 (2002)
                    Sc-Zn : Obtained from the EMSL Basis Set Exchange (bse.pnl.gov) Feb. 2017
                            J. G. Hill, J. A. Platts, J. Chem. Phys. 128, 044104 (2008)

================================================================================
                                        WARNINGS
                       Please study these warnings very carefully!
================================================================================


WARNING: No MP2 level density has been requested!
         To caclulate MP2 level properties use
         %mp2 Density relaxed end
         or
         %mp2 Density unrelaxed end
         Otherwise for double-hybrid DFT only the energy is correct!

WARNING: There are different parametrizations of Gershom Martin's DSD-DFs
         for use with and without D3(BJ)!
         You are using the D3(BJ) parametrized version,
         consistent with the GMTKN55 benchmark (L. Goerigk et al., PCCP 2017, 19, 32184)

WARNING: The frozen-core approximation is turned on by default for 
         the MP2 part of double-hybrid DFT.

INFO   : the flag for use of the SHARK integral package has been found!

================================================================================
                                       INPUT FILE
================================================================================
NAME = HA.17.avtz.com
|  1> !PAL8
|  2> !RI-DSD-PBEP86 D3BJ aug-cc-pVTZ aug-cc-pVTZ/C TightSCF
|  3> %maxcore 5000
|  4> 
|  5> * xyz 0 1
|  6> S -1.7381530307  0.3694751264  1.2711715253
|  7> O -0.6151672833  0.8064593234  2.0806718703
|  8> O -3.0362669537  1.0177715565  1.3153683791
|  9> N -2.0064961787 -1.2155217445  1.6824873816
| 10> H -1.1717250975 -1.7906327898  1.731028332
| 11> C -1.1972049035  0.3861582167 -0.4355775387
| 12> H -0.2707176135 -0.183572425 -0.5198155963
| 13> H -1.022972471  1.4316969587 -0.6980592462
| 14> H -1.985503552 -0.0338884618 -1.0618473416
| 15> H -2.7974239161 -1.6488027605  1.2170282346
| 16> *
| 17> 
| 18> 
| 19> 
| 20>                          ****END OF INPUT****
================================================================================

                       ****************************
                       * Single Point Calculation *
                       ****************************

---------------------------------
CARTESIAN COORDINATES (ANGSTROEM)
---------------------------------
  S     -1.738153    0.369475    1.271172
  O     -0.615167    0.806459    2.080672
  O     -3.036267    1.017772    1.315368
  N     -2.006496   -1.215522    1.682487
  H     -1.171725   -1.790633    1.731028
  C     -1.197205    0.386158   -0.435578
  H     -0.270718   -0.183572   -0.519816
  H     -1.022972    1.431697   -0.698059
  H     -1.985504   -0.033888   -1.061847
  H     -2.797424   -1.648803    1.217028

----------------------------
CARTESIAN COORDINATES (A.U.)
----------------------------
  NO LB      ZA    FRAG     MASS         X           Y           Z
   0 S    16.0000    0    32.060   -3.284633    0.698207    2.402166
   1 O     8.0000    0    15.999   -1.162498    1.523987    3.931900
   2 O     8.0000    0    15.999   -5.737713    1.923310    2.485686
   3 N     7.0000    0    14.007   -3.791728   -2.297003    3.179440
   4 H     1.0000    0     1.008   -2.214240   -3.383806    3.271169
   5 C     6.0000    0    12.011   -2.262389    0.729733   -0.823122
   6 H     1.0000    0     1.008   -0.511582   -0.346902   -0.982309
   7 H     1.0000    0     1.008   -1.933138    2.705515   -1.319141
   8 H     1.0000    0     1.008   -3.752058   -0.064040   -2.006601
   9 H     1.0000    0     1.008   -5.286365   -3.115786    2.299850

--------------------------------
INTERNAL COORDINATES (ANGSTROEM)
--------------------------------
 S      0   0   0     0.000000000000     0.00000000     0.00000000
 O      1   0   0     1.451669034541     0.00000000     0.00000000
 O      1   2   0     1.451668481525   122.70709394     0.00000000
 N      1   2   3     1.659338380043   105.92691144   238.50648984
 H      4   1   2     1.014865358705   114.84312261   314.13746172
 C      1   2   3     1.790501485419   107.15933873   124.41847770
 H      6   1   2     1.090902265545   108.98541883    52.28541297
 H      6   1   2     1.091972915566   106.63400697   293.29610530
 H      6   1   2     1.090902304228   108.98539093   174.30696360
 H      4   1   2     1.014865184219   114.84419932   177.61401891

---------------------------
INTERNAL COORDINATES (A.U.)
---------------------------
 S      0   0   0     0.000000000000     0.00000000     0.00000000
 O      1   0   0     2.743256912377     0.00000000     0.00000000
 O      1   2   0     2.743255867327   122.70709394     0.00000000
 N      1   2   3     3.135695101787   105.92691144   238.50648984
 H      4   1   2     1.917817590756   114.84312261   314.13746172
 C      1   2   3     3.383557449821   107.15933873   124.41847770
 H      6   1   2     2.061506520755   108.98541883    52.28541297
 H      6   1   2     2.063529756079   106.63400697   293.29610530
 H      6   1   2     2.061506593855   108.98539093   174.30696360
 H      4   1   2     1.917817261026   114.84419932   177.61401891

---------------------
BASIS SET INFORMATION
---------------------
There are 5 groups of distinct atoms

 Group   1 Type S   : 42s17p3d2f contracted to 6s5p3d2f pattern {131313111/77111/111/11}
 Group   2 Type O   : 19s6p3d2f contracted to 5s4p3d2f pattern {88111/3111/111/11}
 Group   3 Type N   : 19s6p3d2f contracted to 5s4p3d2f pattern {88111/3111/111/11}
 Group   4 Type H   : 6s3p2d contracted to 4s3p2d pattern {3111/111/11}
 Group   5 Type C   : 19s6p3d2f contracted to 5s4p3d2f pattern {88111/3111/111/11}

Atom   0S    basis set group =>   1
Atom   1O    basis set group =>   2
Atom   2O    basis set group =>   2
Atom   3N    basis set group =>   3
Atom   4H    basis set group =>   4
Atom   5C    basis set group =>   5
Atom   6H    basis set group =>   4
Atom   7H    basis set group =>   4
Atom   8H    basis set group =>   4
Atom   9H    basis set group =>   4
---------------------------------
AUXILIARY/J BASIS SET INFORMATION
---------------------------------
There are 5 groups of distinct atoms

 Group   1 Type S   : 14s5p5d2f1g contracted to 8s4p3d1f1g pattern {71111111/2111/311/2/1}
 Group   2 Type O   : 12s5p4d2f1g contracted to 6s4p3d1f1g pattern {711111/2111/211/2/1}
 Group   3 Type N   : 12s5p4d2f1g contracted to 6s4p3d1f1g pattern {711111/2111/211/2/1}
 Group   4 Type H   : 5s2p1d contracted to 3s1p1d pattern {311/2/1}
 Group   5 Type C   : 12s5p4d2f1g contracted to 6s4p3d1f1g pattern {711111/2111/211/2/1}

Atom   0S    basis set group =>   1
Atom   1O    basis set group =>   2
Atom   2O    basis set group =>   2
Atom   3N    basis set group =>   3
Atom   4H    basis set group =>   4
Atom   5C    basis set group =>   5
Atom   6H    basis set group =>   4
Atom   7H    basis set group =>   4
Atom   8H    basis set group =>   4
Atom   9H    basis set group =>   4
---------------------------------
AUXILIARY/C BASIS SET INFORMATION
---------------------------------
There are 5 groups of distinct atoms

 Group   1 Type S   : 11s9p8d6f3g contracted to 11s9p8d6f3g pattern {11111111111/111111111/11111111/111111/111}
 Group   2 Type O   : 9s7p6d4f2g contracted to 9s7p6d4f2g pattern {111111111/1111111/111111/1111/11}
 Group   3 Type N   : 9s7p6d4f2g contracted to 9s7p6d4f2g pattern {111111111/1111111/111111/1111/11}
 Group   4 Type H   : 5s4p3d2f contracted to 5s4p3d2f pattern {11111/1111/111/11}
 Group   5 Type C   : 9s7p6d4f2g contracted to 9s7p6d4f2g pattern {111111111/1111111/111111/1111/11}

Atom   0S    basis set group =>   1
Atom   1O    basis set group =>   2
Atom   2O    basis set group =>   2
Atom   3N    basis set group =>   3
Atom   4H    basis set group =>   4
Atom   5C    basis set group =>   5
Atom   6H    basis set group =>   4
Atom   7H    basis set group =>   4
Atom   8H    basis set group =>   4
Atom   9H    basis set group =>   4


           ************************************************************
           *        Program running with 8 parallel MPI-processes     *
           *              working on a common directory               *
           ************************************************************
------------------------------------------------------------------------------
                           ORCA GTO INTEGRAL CALCULATION
                           -- RI-GTO INTEGRALS CHOSEN --
------------------------------------------------------------------------------
------------------------------------------------------------------------------
                   ___                                                        
                  /   \      - P O W E R E D   B Y -                         
                 /     \                                                     
                 |  |  |   _    _      __       _____    __    __             
                 |  |  |  | |  | |    /  \     |  _  \  |  |  /  |          
                  \  \/   | |  | |   /    \    | | | |  |  | /  /          
                 / \  \   | |__| |  /  /\  \   | |_| |  |  |/  /          
                |  |  |   |  __  | /  /__\  \  |    /   |      \           
                |  |  |   | |  | | |   __   |  |    \   |  |\   \          
                \     /   | |  | | |  |  |  |  | |\  \  |  | \   \       
                 \___/    |_|  |_| |__|  |__|  |_| \__\ |__|  \__/        
                                                                              
                      - O R C A' S   B I G   F R I E N D -                    
                                      &                                       
                       - I N T E G R A L  F E E D E R -                       
                                                                              
 v1 FN, 2020, v2 2021                                                         
------------------------------------------------------------------------------


Reading SHARK input file HA.17.avtz.SHARKINP.tmp ... ok
----------------------
SHARK INTEGRAL PACKAGE
----------------------

Number of atoms                             ...     10
Number of basis functions                   ...    398
Number of shells                            ...    156
Maximum angular momentum                    ...      3
Integral batch strategy                     ... SHARK/LIBINT Hybrid
RI-J (if used) integral strategy            ... SPLIT-RIJ (Revised 2003 algorithm where possible)
Printlevel                                  ...      1
Contraction scheme used                     ... PARTIAL GENERAL contraction
Coulomb Range Separation                    ... NOT USED
Exchange Range Separation                   ... NOT USED
Finite Nucleus Model                        ... NOT USED
Auxiliary Coulomb fitting basis             ... AVAILABLE
   # of basis functions in Aux-J            ...    302
   # of shells in Aux-J                     ...    102
   Maximum angular momentum in Aux-J        ...      4
Auxiliary J/K fitting basis                 ... NOT available
Auxiliary Correlation fitting basis         ... AVAILABLE
   # of basis functions in Aux-C            ...    801
   # of shells in Aux-C                     ...    219
   Maximum angular momentum in Aux-C        ...      4
Auxiliary 'external' fitting basis          ... NOT available
Integral threshold                          ...     2.500000e-11
Primitive cut-off                           ...     2.500000e-12
Primitive pair pre-selection threshold      ...     2.500000e-12

Calculating pre-screening integrals         ... done (  0.0 sec) Dimension = 156
Calculating pre-screening integrals (ORCA)  ... done (  0.1 sec) Dimension = 117
Organizing shell pair data                  ... done (  0.1 sec)
Shell pair information
Total number of shell pairs                 ...     12246
Shell pairs after pre-screening             ...     10888
Total number of primitive shell pairs       ...     15252
Primitive shell pairs kept                  ...     12762
          la=0 lb=0:   2457 shell pairs
          la=1 lb=0:   2914 shell pairs
          la=1 lb=1:    849 shell pairs
          la=2 lb=0:   1847 shell pairs
          la=2 lb=1:   1013 shell pairs
          la=2 lb=2:    325 shell pairs
          la=3 lb=0:    768 shell pairs
          la=3 lb=1:    410 shell pairs
          la=3 lb=2:    250 shell pairs
          la=3 lb=3:     55 shell pairs

Calculating one electron integrals          ... done (  0.0 sec)
Calculating RI/J V-Matrix + Cholesky decomp.... done (  0.0 sec)
Calculating RI/C V-Matrix + Cholesky decomp.... done (  0.0 sec)
Calculating Nuclear repulsion               ... done (  0.0 sec) ENN=    277.826931496284 Eh

SHARK setup successfully completed in   0.6 seconds

Maximum memory used throughout the entire GTOINT-calculation: 56.3 MB


           ************************************************************
           *        Program running with 8 parallel MPI-processes     *
           *              working on a common directory               *
           ************************************************************
-------------------------------------------------------------------------------
                                 ORCA SCF
-------------------------------------------------------------------------------

------------
SCF SETTINGS
------------
Hamiltonian:
 Density Functional     Method          .... DFT(GTOs)
 Exchange Functional    Exchange        .... PBE
   PBE kappa parameter   XKappa         ....  0.804000
   PBE mue parameter    XMuePBE         ....  0.219520
 Correlation Functional Correlation     .... P86
 LDA part of GGA corr.  LDAOpt          .... VWN-5
 Gradients option       PostSCFGGA      .... off
 Hybrid DFT is turned on
   Fraction HF Exchange ScalHFX         ....  0.700000
   Scaling of DF-GGA-X  ScalDFX         ....  0.300000
   Scaling of DF-GGA-C  ScalDFC         ....  0.430000
   Scaling of DF-LDA-C  ScalLDAC        ....  0.430000
   Perturbative correction              ....  1.000000
   Density functional embedding theory  .... OFF
   NL short-range parameter             .... 14.200000
 RI-approximation to the Coulomb term is turned on
   Number of AuxJ basis functions       .... 302
   RIJ-COSX (HFX calculated with COS-X)).... on


General Settings:
 Integral files         IntName         .... HA.17.avtz
 Hartree-Fock type      HFTyp           .... RHF
 Total Charge           Charge          ....    0
 Multiplicity           Mult            ....    1
 Number of Electrons    NEL             ....   50
 Basis Dimension        Dim             ....  349
 Nuclear Repulsion      ENuc            ....    277.8269314963 Eh

Convergence Acceleration:
 DIIS                   CNVDIIS         .... on
   Start iteration      DIISMaxIt       ....    12
   Startup error        DIISStart       ....  0.200000
   # of expansion vecs  DIISMaxEq       ....     5
   Bias factor          DIISBfac        ....   1.050
   Max. coefficient     DIISMaxC        ....  10.000
 Trust-Rad. Augm. Hess. CNVTRAH         .... auto
   Auto Start mean grad. ratio tolernc. ....  1.125000
   Auto Start start iteration           ....    20
   Auto Start num. interpolation iter.  ....    10
   Max. Number of Micro iterations      ....    16
   Max. Number of Macro iterations      .... Maxiter - #DIIS iter
   Number of Davidson start vectors     ....     2
   Converg. threshold I  (grad. norm)   ....   1.000e-05
   Converg. threshold II (energy diff.) ....   1.000e-08
   Grad. Scal. Fac. for Micro threshold ....   0.100
   Minimum threshold for Micro iter.    ....   0.010
   NR start threshold (gradient norm)   ....   0.001
   Initial trust radius                 ....   0.400
   Minimum AH scaling param. (alpha)    ....   1.000
   Maximum AH scaling param. (alpha)    .... 1000.000
   Orbital update algorithm             .... Taylor
   White noise on init. David. guess    .... on
   Maximum white noise                  ....   0.010
   Quad. conv. algorithm                .... NR
 SOSCF                  CNVSOSCF        .... on
   Start iteration      SOSCFMaxIt      ....   150
   Startup grad/error   SOSCFStart      ....  0.003300
 Level Shifting         CNVShift        .... on
   Level shift para.    LevelShift      ....    0.2500
   Turn off err/grad.   ShiftErr        ....    0.0010
 Zerner damping         CNVZerner       .... off
 Static damping         CNVDamp         .... on
   Fraction old density DampFac         ....    0.7000
   Max. Damping (<1)    DampMax         ....    0.9800
   Min. Damping (>=0)   DampMin         ....    0.0000
   Turn off err/grad.   DampErr         ....    0.1000
 Fernandez-Rico         CNVRico         .... off

SCF Procedure:
 Maximum # iterations   MaxIter         ....   125
 SCF integral mode      SCFMode         .... Direct
   Integral package                     .... SHARK and LIBINT hybrid scheme
 Reset frequency        DirectResetFreq ....    20
 Integral Threshold     Thresh          ....  2.500e-11 Eh
 Primitive CutOff       TCut            ....  2.500e-12 Eh

Convergence Tolerance:
 Convergence Check Mode ConvCheckMode   .... Total+1el-Energy
 Convergence forced     ConvForced      .... 0
 Energy Change          TolE            ....  1.000e-08 Eh
 1-El. energy change                    ....  1.000e-05 Eh
 Orbital Gradient       TolG            ....  1.000e-05
 Orbital Rotation angle TolX            ....  1.000e-05
 DIIS Error             TolErr          ....  5.000e-07


Diagonalization of the overlap matrix:
Smallest eigenvalue                        ... 2.270e-05
Time for diagonalization                   ...    0.026 sec
Threshold for overlap eigenvalues          ... 1.000e-08
Number of eigenvalues below threshold      ... 0
Time for construction of square roots      ...    0.013 sec
Total time needed                          ...    0.041 sec

Time for model grid setup =    0.050 sec

------------------------------
INITIAL GUESS: MODEL POTENTIAL
------------------------------
Loading Hartree-Fock densities                     ... done
Calculating cut-offs                               ... done
Initializing the effective Hamiltonian             ... done
Setting up the integral package (SHARK)            ... done
Starting the Coulomb interaction                   ... done (   0.1 sec)
Reading the grid                                   ... done
Mapping shells                                     ... done
Starting the XC term evaluation                    ... done (   0.1 sec)
  promolecular density results
     # of electrons  =     49.996955520
     EX              =    -54.433080132
     EC              =     -0.005112738
     EX+EC           =    -54.438192870
Transforming the Hamiltonian                       ... done (   0.0 sec)
Diagonalizing the Hamiltonian                      ... done (   0.0 sec)
Back transforming the eigenvectors                 ... done (   0.0 sec)
Now organizing SCF variables                       ... done
                      ------------------
                      INITIAL GUESS DONE (   0.2 sec)
                      ------------------
-------------------
DFT GRID GENERATION
-------------------

General Integration Accuracy     IntAcc      ... 4.388
Radial Grid Type                 RadialGrid  ... OptM3 with GC (2021)
Angular Grid (max. ang.)         AngularGrid ... 4 (Lebedev-302)
Angular grid pruning method      GridPruning ... 4 (adaptive)
Weight generation scheme         WeightScheme... Becke
Basis function cutoff            BFCut       ... 1.0000e-11
Integration weight cutoff        WCut        ... 1.0000e-14
Angular grids for H and He will be reduced by one unit
Partially contracted basis set               ... off
Rotationally invariant grid construction     ... off

Total number of grid points                  ...    50384
Total number of batches                      ...      790
Average number of points per batch           ...       63
Average number of grid points per atom       ...     5038
Time for grid setup =    0.217 sec

--------------------
COSX GRID GENERATION
--------------------

GRIDX 1
-------
General Integration Accuracy     IntAcc      ... 3.816
Radial Grid Type                 RadialGrid  ... OptM3 with GC (2021)
Angular Grid (max. ang.)         AngularGrid ... 1 (Lebedev-50)
Angular grid pruning method      GridPruning ... 4 (adaptive)
Weight generation scheme         WeightScheme... Becke
Basis function cutoff            BFCut       ... 1.0000e-11
Integration weight cutoff        WCut        ... 1.0000e-14
Angular grids for H and He will be reduced by one unit
Partially contracted basis set               ... on
Rotationally invariant grid construction     ... off

Total number of grid points                  ...     6259
Total number of batches                      ...      103
Average number of points per batch           ...       60
Average number of grid points per atom       ...      626
UseSFitting                                  ... on

GRIDX 2
-------
General Integration Accuracy     IntAcc      ... 4.020
Radial Grid Type                 RadialGrid  ... OptM3 with GC (2021)
Angular Grid (max. ang.)         AngularGrid ... 2 (Lebedev-110)
Angular grid pruning method      GridPruning ... 4 (adaptive)
Weight generation scheme         WeightScheme... Becke
Basis function cutoff            BFCut       ... 1.0000e-11
Integration weight cutoff        WCut        ... 1.0000e-14
Angular grids for H and He will be reduced by one unit
Partially contracted basis set               ... on
Rotationally invariant grid construction     ... off

Total number of grid points                  ...    15291
Total number of batches                      ...      244
Average number of points per batch           ...       62
Average number of grid points per atom       ...     1529
UseSFitting                                  ... on

GRIDX 3
-------
General Integration Accuracy     IntAcc      ... 4.338
Radial Grid Type                 RadialGrid  ... OptM3 with GC (2021)
Angular Grid (max. ang.)         AngularGrid ... 3 (Lebedev-194)
Angular grid pruning method      GridPruning ... 4 (adaptive)
Weight generation scheme         WeightScheme... Becke
Basis function cutoff            BFCut       ... 1.0000e-11
Integration weight cutoff        WCut        ... 1.0000e-14
Angular grids for H and He will be reduced by one unit
Partially contracted basis set               ... on
Rotationally invariant grid construction     ... off

Total number of grid points                  ...    34845
Total number of batches                      ...      548
Average number of points per batch           ...       63
Average number of grid points per atom       ...     3484
UseSFitting                                  ... on

Time for X-Grid setup             =    0.311 sec

 re-compute Schwartz prescreening matrix in partically contracted basis (1) ...done (   0.075 sec)
--------------
SCF ITERATIONS
--------------
ITER       Energy         Delta-E        Max-DP      RMS-DP      [F,P]     Damp
               ***  Starting incremental Fock matrix formation  ***
  0   -643.0661243563   0.000000000000 0.05258215  0.00075516  0.2924530 0.7000
  1   -643.1854881759  -0.119363819554 0.03329870  0.00052440  0.1483662 0.7000
                               ***Turning on DIIS***
  2   -643.2406549028  -0.055166726926 0.06964095  0.00104412  0.0721732 0.0000
  3   -643.3318496937  -0.091194790846 0.02534135  0.00034436  0.0652969 0.0000
  4   -643.3460588874  -0.014209193705 0.00590929  0.00010315  0.0104783 0.0000
  5   -643.3464437323  -0.000384844959 0.00266525  0.00003998  0.0037290 0.0000
                      *** Initiating the SOSCF procedure ***
                           *** Shutting down DIIS ***
                      *** Re-Reading the Fockian *** 
                      *** Removing any level shift *** 
ITER      Energy       Delta-E        Grad      Rot      Max-DP    RMS-DP
  6   -643.34651662  -0.0000728834  0.000402  0.000402  0.000828  0.000016
               *** Restarting incremental Fock matrix formation ***
  7   -643.34653527  -0.0000186562  0.000186  0.000298  0.032631  0.000169
  8   -643.34653749  -0.0000022167  0.000086  0.000143  0.012085  0.000063
  9   -643.34653798  -0.0000004869  0.000028  0.000039  0.006999  0.000038
 10   -643.34653807  -0.0000000930  0.000010  0.000012  0.001724  0.000009
 11   -643.34653808  -0.0000000069  0.000005  0.000006  0.000470  0.000003
                  ***Gradient check signals convergence***
              ***Rediagonalizing the Fockian in SOSCF/NRSCF***

               *****************************************************
               *                     SUCCESS                       *
               *           SCF CONVERGED AFTER  12 CYCLES          *
               *****************************************************

Old exchange energy                            =    -38.634778985 Eh
New exchange energy                            =    -38.634903294 Eh
Exchange energy change after final integration =     -0.000124309 Eh
Total energy after final integration           =   -643.346662388 Eh
Final COS-X integration done in                =     3.116 sec

----------------
TOTAL SCF ENERGY
----------------

Total Energy       :         -643.34666239 Eh          -17506.35269 eV

Components:
Nuclear Repulsion  :          277.82693150 Eh            7560.05515 eV
Electronic Energy  :         -921.17359388 Eh          -25066.40784 eV
One Electron Energy:        -1436.44770927 Eh          -39087.72935 eV
Two Electron Energy:          515.27411538 Eh           14021.32151 eV
Max COSX asymmetry :            0.00001252 Eh               0.00034 eV

Virial components:
Potential Energy   :        -1285.05537099 Eh          -34968.13439 eV
Kinetic Energy     :          641.70870860 Eh           17461.78170 eV
Virial Ratio       :            2.00255249


DFT components:
N(Alpha)           :       25.000005909889 electrons
N(Beta)            :       25.000005909889 electrons
N(Total)           :       50.000011819778 electrons
E(X)               :      -16.494718566102 Eh       
E(C)               :       -0.858346770102 Eh       
E(XC)              :      -17.353065336204 Eh       
DFET-embed. en.    :        0.000000000000 Eh       

---------------
SCF CONVERGENCE
---------------

  Last Energy change         ...   -3.2074e-09  Tolerance :   1.0000e-08
  Last MAX-Density change    ...    4.2188e-15  Tolerance :   1.0000e-07
  Last RMS-Density change    ...    2.4304e-17  Tolerance :   5.0000e-09
  Last Orbital Gradient      ...    6.9549e-07  Tolerance :   1.0000e-05
  Last Orbital Rotation      ...    1.2298e-06  Tolerance :   1.0000e-05

             **** THE GBW FILE WAS UPDATED (HA.17.avtz.gbw) ****
             **** DENSITY HA.17.avtz.scfp WAS UPDATED ****
             **** ENERGY FILE WAS UPDATED (HA.17.avtz.en.tmp) ****
             **** THE GBW FILE WAS UPDATED (HA.17.avtz.gbw) ****
             **** DENSITY HA.17.avtz.scfp WAS UPDATED ****
----------------
ORBITAL ENERGIES
----------------

  NO   OCC          E(Eh)            E(eV) 
   0   2.0000     -91.042942     -2477.4044 
   1   2.0000     -20.016988      -544.6899 
   2   2.0000     -20.016919      -544.6880 
   3   2.0000     -15.142481      -412.0479 
   4   2.0000     -10.881535      -296.1016 
   5   2.0000      -8.785869      -239.0757 
   6   2.0000      -6.572245      -178.8399 
   7   2.0000      -6.570372      -178.7889 
   8   2.0000      -6.569118      -178.7548 
   9   2.0000      -1.339807       -36.4580 
  10   2.0000      -1.224294       -33.3147 
  11   2.0000      -1.115302       -30.3489 
  12   2.0000      -0.946891       -25.7662 
  13   2.0000      -0.773657       -21.0523 
  14   2.0000      -0.669257       -18.2114 
  15   2.0000      -0.657114       -17.8810 
  16   2.0000      -0.611019       -16.6267 
  17   2.0000      -0.585773       -15.9397 
  18   2.0000      -0.554934       -15.1005 
  19   2.0000      -0.546006       -14.8576 
  20   2.0000      -0.456739       -12.4285 
  21   2.0000      -0.439660       -11.9638 
  22   2.0000      -0.423607       -11.5269 
  23   2.0000      -0.418513       -11.3883 
  24   2.0000      -0.409703       -11.1486 
  25   0.0000       0.005134         0.1397 
  26   0.0000       0.025984         0.7071 
  27   0.0000       0.030154         0.8205 
  28   0.0000       0.043760         1.1908 
  29   0.0000       0.052581         1.4308 
  30   0.0000       0.071230         1.9383 
  31   0.0000       0.082881         2.2553 
  32   0.0000       0.094605         2.5743 
  33   0.0000       0.097544         2.6543 
  34   0.0000       0.098590         2.6828 
  35   0.0000       0.116305         3.1648 
  36   0.0000       0.120033         3.2663 
  37   0.0000       0.122058         3.3214 
  38   0.0000       0.137577         3.7437 
  39   0.0000       0.139430         3.7941 
  40   0.0000       0.142154         3.8682 
  41   0.0000       0.165581         4.5057 
  42   0.0000       0.169025         4.5994 
  43   0.0000       0.175229         4.7682 
  44   0.0000       0.183449         4.9919 
  45   0.0000       0.184047         5.0082 
  46   0.0000       0.193257         5.2588 
  47   0.0000       0.200772         5.4633 
  48   0.0000       0.205179         5.5832 
  49   0.0000       0.226507         6.1636 
  50   0.0000       0.238568         6.4918 
  51   0.0000       0.248018         6.7489 
  52   0.0000       0.253858         6.9078 
  53   0.0000       0.262768         7.1503 
  54   0.0000       0.271617         7.3911 
  55   0.0000       0.279504         7.6057 
  56   0.0000       0.296372         8.0647 
  57   0.0000       0.300279         8.1710 
  58   0.0000       0.302506         8.2316 
  59   0.0000       0.310861         8.4590 
  60   0.0000       0.320963         8.7338 
  61   0.0000       0.333891         9.0856 
  62   0.0000       0.334250         9.0954 
  63   0.0000       0.340213         9.2577 
  64   0.0000       0.350522         9.5382 
  65   0.0000       0.354075         9.6349 
  66   0.0000       0.361561         9.8386 
  67   0.0000       0.362711         9.8699 
  68   0.0000       0.367620        10.0035 
  69   0.0000       0.379723        10.3328 
  70   0.0000       0.394231        10.7276 
  71   0.0000       0.396973        10.8022 
  72   0.0000       0.408788        11.1237 
  73   0.0000       0.419151        11.4057 
  74   0.0000       0.426247        11.5988 
  75   0.0000       0.445858        12.1324 
  76   0.0000       0.449064        12.2197 
  77   0.0000       0.460844        12.5402 
  78   0.0000       0.468998        12.7621 
  79   0.0000       0.478552        13.0221 
  80   0.0000       0.493271        13.4226 
  81   0.0000       0.517030        14.0691 
  82   0.0000       0.517527        14.0826 
  83   0.0000       0.538782        14.6610 
  84   0.0000       0.546451        14.8697 
  85   0.0000       0.559402        15.2221 
  86   0.0000       0.569932        15.5086 
  87   0.0000       0.584657        15.9093 
  88   0.0000       0.596752        16.2384 
  89   0.0000       0.607604        16.5338 
  90   0.0000       0.655953        17.8494 
  91   0.0000       0.662815        18.0361 
  92   0.0000       0.681819        18.5532 
  93   0.0000       0.695616        18.9287 
  94   0.0000       0.720794        19.6138 
  95   0.0000       0.733055        19.9474 
  96   0.0000       0.734623        19.9901 
  97   0.0000       0.749911        20.4061 
  98   0.0000       0.766174        20.8486 
  99   0.0000       0.766485        20.8571 
 100   0.0000       0.774797        21.0833 
 101   0.0000       0.790739        21.5171 
 102   0.0000       0.800480        21.7822 
 103   0.0000       0.810375        22.0514 
 104   0.0000       0.812266        22.1029 
 105   0.0000       0.817860        22.2551 
 106   0.0000       0.838215        22.8090 
 107   0.0000       0.840385        22.8680 
 108   0.0000       0.853944        23.2370 
 109   0.0000       0.858405        23.3584 
 110   0.0000       0.872585        23.7442 
 111   0.0000       0.886526        24.1236 
 112   0.0000       0.904661        24.6171 
 113   0.0000       0.920612        25.0511 
 114   0.0000       0.920690        25.0532 
 115   0.0000       0.928300        25.2603 
 116   0.0000       0.936384        25.4803 
 117   0.0000       0.964821        26.2541 
 118   0.0000       0.975438        26.5430 
 119   0.0000       0.987303        26.8659 
 120   0.0000       0.994474        27.0610 
 121   0.0000       1.004173        27.3249 
 122   0.0000       1.024150        27.8685 
 123   0.0000       1.027624        27.9631 
 124   0.0000       1.032996        28.1092 
 125   0.0000       1.042389        28.3648 
 126   0.0000       1.050411        28.5831 
 127   0.0000       1.059573        28.8325 
 128   0.0000       1.069996        29.1161 
 129   0.0000       1.076232        29.2858 
 130   0.0000       1.089414        29.6445 
 131   0.0000       1.105615        30.0853 
 132   0.0000       1.112873        30.2828 
 133   0.0000       1.126712        30.6594 
 134   0.0000       1.136965        30.9384 
 135   0.0000       1.161288        31.6003 
 136   0.0000       1.173352        31.9285 
 137   0.0000       1.188857        32.3505 
 138   0.0000       1.203305        32.7436 
 139   0.0000       1.217813        33.1384 
 140   0.0000       1.231646        33.5148 
 141   0.0000       1.236599        33.6496 
 142   0.0000       1.242361        33.8064 
 143   0.0000       1.252609        34.0852 
 144   0.0000       1.283013        34.9126 
 145   0.0000       1.291711        35.1493 
 146   0.0000       1.296675        35.2843 
 147   0.0000       1.322003        35.9735 
 148   0.0000       1.338715        36.4283 
 149   0.0000       1.341535        36.5050 
 150   0.0000       1.366953        37.1967 
 151   0.0000       1.372143        37.3379 
 152   0.0000       1.392031        37.8791 
 153   0.0000       1.418022        38.5863 
 154   0.0000       1.439068        39.1590 
 155   0.0000       1.443906        39.2907 
 156   0.0000       1.450713        39.4759 
 157   0.0000       1.498868        40.7863 
 158   0.0000       1.499906        40.8145 
 159   0.0000       1.532403        41.6988 
 160   0.0000       1.541790        41.9542 
 161   0.0000       1.545542        42.0563 
 162   0.0000       1.575056        42.8594 
 163   0.0000       1.583699        43.0946 
 164   0.0000       1.600275        43.5457 
 165   0.0000       1.601183        43.5704 
 166   0.0000       1.621866        44.1332 
 167   0.0000       1.622141        44.1407 
 168   0.0000       1.655392        45.0455 
 169   0.0000       1.669970        45.4422 
 170   0.0000       1.697180        46.1826 
 171   0.0000       1.711607        46.5752 
 172   0.0000       1.745186        47.4889 
 173   0.0000       1.765238        48.0346 
 174   0.0000       1.774992        48.3000 
 175   0.0000       1.811812        49.3019 
 176   0.0000       1.836919        49.9851 
 177   0.0000       1.865498        50.7628 
 178   0.0000       1.868218        50.8368 
 179   0.0000       1.894696        51.5573 
 180   0.0000       1.936118        52.6844 
 181   0.0000       1.946306        52.9617 
 182   0.0000       1.993733        54.2522 
 183   0.0000       2.004706        54.5508 
 184   0.0000       2.046727        55.6943 
 185   0.0000       2.071480        56.3678 
 186   0.0000       2.094844        57.0036 
 187   0.0000       2.098588        57.1055 
 188   0.0000       2.108682        57.3801 
 189   0.0000       2.120641        57.7056 
 190   0.0000       2.144625        58.3582 
 191   0.0000       2.161349        58.8133 
 192   0.0000       2.161562        58.8191 
 193   0.0000       2.170111        59.0517 
 194   0.0000       2.186761        59.5048 
 195   0.0000       2.205799        60.0228 
 196   0.0000       2.227000        60.5997 
 197   0.0000       2.251815        61.2750 
 198   0.0000       2.274763        61.8995 
 199   0.0000       2.288466        62.2723 
 200   0.0000       2.304534        62.7096 
 201   0.0000       2.306068        62.7513 
 202   0.0000       2.317311        63.0572 
 203   0.0000       2.330202        63.4080 
 204   0.0000       2.357870        64.1609 
 205   0.0000       2.368571        64.4521 
 206   0.0000       2.390028        65.0360 
 207   0.0000       2.416569        65.7582 
 208   0.0000       2.440003        66.3959 
 209   0.0000       2.466175        67.1080 
 210   0.0000       2.493198        67.8434 
 211   0.0000       2.511722        68.3474 
 212   0.0000       2.524315        68.6901 
 213   0.0000       2.543890        69.2228 
 214   0.0000       2.582080        70.2620 
 215   0.0000       2.588219        70.4290 
 216   0.0000       2.614245        71.1372 
 217   0.0000       2.645903        71.9987 
 218   0.0000       2.707782        73.6825 
 219   0.0000       2.709123        73.7190 
 220   0.0000       2.711848        73.7931 
 221   0.0000       2.737877        74.5014 
 222   0.0000       2.743486        74.6540 
 223   0.0000       2.808759        76.4302 
 224   0.0000       2.809528        76.4511 
 225   0.0000       2.840470        77.2931 
 226   0.0000       2.877067        78.2890 
 227   0.0000       2.923947        79.5646 
 228   0.0000       2.992690        81.4352 
 229   0.0000       3.025121        82.3177 
 230   0.0000       3.068928        83.5098 
 231   0.0000       3.157846        85.9294 
 232   0.0000       3.160749        86.0083 
 233   0.0000       3.221421        87.6593 
 234   0.0000       3.257760        88.6481 
 235   0.0000       3.269229        88.9603 
 236   0.0000       3.317581        90.2760 
 237   0.0000       3.323648        90.4411 
 238   0.0000       3.384693        92.1022 
 239   0.0000       3.440310        93.6156 
 240   0.0000       3.480957        94.7217 
 241   0.0000       3.500244        95.2465 
 242   0.0000       3.510109        95.5149 
 243   0.0000       3.549384        96.5836 
 244   0.0000       3.600397        97.9718 
 245   0.0000       3.619187        98.4831 
 246   0.0000       3.676692       100.0479 
 247   0.0000       3.678506       100.0972 
 248   0.0000       3.714870       101.0868 
 249   0.0000       3.778014       102.8050 
 250   0.0000       3.785667       103.0132 
 251   0.0000       3.810102       103.6781 
 252   0.0000       3.821150       103.9788 
 253   0.0000       3.838446       104.4494 
 254   0.0000       3.873431       105.4014 
 255   0.0000       3.939075       107.1877 
 256   0.0000       3.986201       108.4700 
 257   0.0000       4.001988       108.8996 
 258   0.0000       4.026347       109.5625 
 259   0.0000       4.067536       110.6833 
 260   0.0000       4.098469       111.5250 
 261   0.0000       4.125465       112.2596 
 262   0.0000       4.167828       113.4124 
 263   0.0000       4.209845       114.5557 
 264   0.0000       4.252226       115.7089 
 265   0.0000       4.282490       116.5325 
 266   0.0000       4.303289       117.0984 
 267   0.0000       4.330257       117.8323 
 268   0.0000       4.342525       118.1661 
 269   0.0000       4.347240       118.2944 
 270   0.0000       4.375416       119.0611 
 271   0.0000       4.413138       120.0876 
 272   0.0000       4.429109       120.5222 
 273   0.0000       4.474388       121.7543 
 274   0.0000       4.503444       122.5449 
 275   0.0000       4.532040       123.3231 
 276   0.0000       4.617044       125.6362 
 277   0.0000       4.617529       125.6494 
 278   0.0000       4.623312       125.8067 
 279   0.0000       4.666711       126.9877 
 280   0.0000       4.696081       127.7869 
 281   0.0000       4.729658       128.7006 
 282   0.0000       4.754799       129.3847 
 283   0.0000       4.773757       129.9005 
 284   0.0000       4.868458       132.4775 
 285   0.0000       4.881817       132.8410 
 286   0.0000       4.920672       133.8983 
 287   0.0000       4.930014       134.1525 
 288   0.0000       4.977733       135.4510 
 289   0.0000       5.008275       136.2821 
 290   0.0000       5.026134       136.7681 
 291   0.0000       5.029150       136.8501 
 292   0.0000       5.064020       137.7990 
 293   0.0000       5.071031       137.9898 
 294   0.0000       5.134955       139.7292 
 295   0.0000       5.139075       139.8413 
 296   0.0000       5.176992       140.8731 
 297   0.0000       5.338819       145.2766 
 298   0.0000       5.369332       146.1070 
 299   0.0000       5.371997       146.1795 
 300   0.0000       5.427620       147.6930 
 301   0.0000       5.449515       148.2889 
 302   0.0000       5.514941       150.0692 
 303   0.0000       5.538450       150.7089 
 304   0.0000       5.637737       153.4106 
 305   0.0000       5.645277       153.6158 
 306   0.0000       5.698692       155.0693 
 307   0.0000       5.775507       157.1595 
 308   0.0000       5.845984       159.0773 
 309   0.0000       5.862058       159.5147 
 310   0.0000       5.867279       159.6568 
 311   0.0000       5.894583       160.3998 
 312   0.0000       5.977576       162.6581 
 313   0.0000       6.124883       166.6665 
 314   0.0000       6.425764       174.8539 
 315   0.0000       6.435233       175.1116 
 316   0.0000       6.450413       175.5247 
 317   0.0000       6.480226       176.3359 
 318   0.0000       6.497408       176.8035 
 319   0.0000       6.505395       177.0208 
 320   0.0000       6.549819       178.2296 
 321   0.0000       6.581386       179.0886 
 322   0.0000       6.609125       179.8434 
 323   0.0000       6.682353       181.8361 
 324   0.0000       6.696450       182.2197 
 325   0.0000       6.730222       183.1387 
 326   0.0000       6.752953       183.7572 
 327   0.0000       6.765907       184.1097 
 328   0.0000       6.805166       185.1780 
 329   0.0000       6.837251       186.0511 
 330   0.0000       6.844576       186.2504 
 331   0.0000       6.886056       187.3791 
 332   0.0000       6.911107       188.0608 
 333   0.0000       7.065556       192.2635 
 334   0.0000       7.081786       192.7052 
 335   0.0000       7.085126       192.7961 
 336   0.0000       7.155159       194.7018 
 337   0.0000       7.313004       198.9970 
 338   0.0000       7.459886       202.9938 
 339   0.0000       7.505214       204.2273 
 340   0.0000       7.505934       204.2468 
 341   0.0000       7.512174       204.4166 
 342   0.0000       7.538682       205.1380 
 343   0.0000       7.564717       205.8464 
 344   0.0000      12.088900       328.9557 
 345   0.0000      12.436676       338.4191 
 346   0.0000      13.476380       366.7109 
 347   0.0000      16.252402       442.2503 
 348   0.0000      17.077845       464.7118 

                    ********************************
                    * MULLIKEN POPULATION ANALYSIS *
                    ********************************

-----------------------
MULLIKEN ATOMIC CHARGES
-----------------------
   0 S :    2.122864
   1 O :   -0.908006
   2 O :   -0.905049
   3 N :   -0.528224
   4 H :    0.140398
   5 C :   -0.992116
   6 H :    0.308641
   7 H :    0.311363
   8 H :    0.312303
   9 H :    0.137826
Sum of atomic charges:    0.0000000

--------------------------------
MULLIKEN REDUCED ORBITAL CHARGES
--------------------------------
  0 S s       :     4.967172  s :     4.967172
      pz      :     2.681189  p :     8.002796
      px      :     2.687741
      py      :     2.633866
      dz2     :     0.231770  d :     0.831658
      dxz     :     0.158963
      dyz     :     0.089488
      dx2y2   :     0.211776
      dxy     :     0.139661
      f0      :     0.007397  f :     0.075510
      f+1     :     0.010317
      f-1     :     0.004273
      f+2     :     0.012979
      f-2     :     0.011379
      f+3     :     0.014012
      f-3     :     0.015153
  1 O s       :     3.973776  s :     3.973776
      pz      :     1.655992  p :     4.857646
      px      :     1.454517
      py      :     1.747137
      dz2     :     0.015865  d :     0.069059
      dxz     :     0.015924
      dyz     :     0.009713
      dx2y2   :     0.012828
      dxy     :     0.014729
      f0      :     0.000787  f :     0.007525
      f+1     :     0.002020
      f-1     :     0.000464
      f+2     :     0.001040
      f-2     :     0.001163
      f+3     :     0.001310
      f-3     :     0.000740
  2 O s       :     3.971281  s :     3.971281
      pz      :     1.809952  p :     4.857223
      px      :     1.356066
      py      :     1.691206
      dz2     :     0.005062  d :     0.069017
      dxz     :     0.019409
      dyz     :     0.005288
      dx2y2   :     0.020417
      dxy     :     0.018841
      f0      :     0.001032  f :     0.007527
      f+1     :     0.000657
      f-1     :     0.000373
      f+2     :     0.000867
      f-2     :     0.001083
      f+3     :     0.002646
      f-3     :     0.000869
  3 N s       :     3.722846  s :     3.722846
      pz      :     1.573657  p :     3.741485
      px      :     1.092322
      py      :     1.075506
      dz2     :     0.007372  d :     0.057764
      dxz     :     0.008022
      dyz     :     0.011984
      dx2y2   :     0.018061
      dxy     :     0.012325
      f0      :     0.000546  f :     0.006129
      f+1     :     0.000271
      f-1     :     0.001512
      f+2     :     0.001114
      f-2     :     0.000433
      f+3     :     0.001699
      f-3     :     0.000554
  4 H s       :     0.744329  s :     0.744329
      pz      :     0.047809  p :     0.090063
      px      :     0.007614
      py      :     0.034639
      dz2     :     0.000920  d :     0.025210
      dxz     :     0.008266
      dyz     :     0.003748
      dx2y2   :     0.006963
      dxy     :     0.005314
  5 C s       :     3.406342  s :     3.406342
      pz      :     1.004603  p :     3.432621
      px      :     1.183725
      py      :     1.244293
      dz2     :     0.036662  d :     0.153301
      dxz     :     0.028536
      dyz     :     0.008377
      dx2y2   :     0.033329
      dxy     :     0.046397
      f0      :    -0.000102  f :    -0.000148
      f+1     :    -0.000592
      f-1     :    -0.000754
      f+2     :    -0.000720
      f-2     :    -0.001336
      f+3     :    -0.000236
      f-3     :     0.003592
  6 H s       :     0.630131  s :     0.630131
      pz      :     0.017221  p :     0.052076
      px      :     0.016561
      py      :     0.018294
      dz2     :     0.001231  d :     0.009152
      dxz     :     0.004226
      dyz     :     0.000812
      dx2y2   :     0.003036
      dxy     :    -0.000154
  7 H s       :     0.622005  s :     0.622005
      pz      :     0.017897  p :     0.057759
      px      :     0.017573
      py      :     0.022289
      dz2     :     0.001979  d :     0.008873
      dxz     :     0.001700
      dyz     :     0.002774
      dx2y2   :    -0.000705
      dxy     :     0.003127
  8 H s       :     0.626244  s :     0.626244
      pz      :     0.020599  p :     0.052178
      px      :     0.013051
      py      :     0.018529
      dz2     :     0.004061  d :     0.009275
      dxz     :     0.001603
      dyz     :     0.001013
      dx2y2   :     0.001896
      dxy     :     0.000701
  9 H s       :     0.746808  s :     0.746808
      pz      :     0.036397  p :     0.090361
      px      :     0.019398
      py      :     0.034566
      dz2     :     0.006295  d :     0.025005
      dxz     :     0.003535
      dyz     :     0.001603
      dx2y2   :     0.005017
      dxy     :     0.008555


                     *******************************
                     * LOEWDIN POPULATION ANALYSIS *
                     *******************************

----------------------
LOEWDIN ATOMIC CHARGES
----------------------
   0 S :    0.078341
   1 O :    0.048981
   2 O :    0.049037
   3 N :    0.676166
   4 H :   -0.353936
   5 C :    0.479354
   6 H :   -0.209351
   7 H :   -0.205338
   8 H :   -0.209373
   9 H :   -0.353881

-------------------------------
LOEWDIN REDUCED ORBITAL CHARGES
-------------------------------
  0 S s       :     4.496423  s :     4.496423
      pz      :     2.688255  p :     8.058848
      px      :     2.730836
      py      :     2.639757
      dz2     :     0.456750  d :     2.176507
      dxz     :     0.467506
      dyz     :     0.289743
      dx2y2   :     0.517567
      dxy     :     0.444942
      f0      :     0.146228  f :     1.189881
      f+1     :     0.183782
      f-1     :     0.117834
      f+2     :     0.166446
      f-2     :     0.156803
      f+3     :     0.254545
      f-3     :     0.164243
  1 O s       :     3.331836  s :     3.331836
      pz      :     1.458779  p :     4.330529
      px      :     1.423969
      py      :     1.447781
      dz2     :     0.045664  d :     0.216882
      dxz     :     0.061483
      dyz     :     0.021842
      dx2y2   :     0.044213
      dxy     :     0.043681
      f0      :     0.008851  f :     0.071771
      f+1     :     0.015063
      f-1     :     0.003850
      f+2     :     0.013340
      f-2     :     0.012278
      f+3     :     0.009570
      f-3     :     0.008819
  2 O s       :     3.331772  s :     3.331772
      pz      :     1.477527  p :     4.330518
      px      :     1.411279
      py      :     1.441711
      dz2     :     0.028301  d :     0.216888
      dxz     :     0.048730
      dyz     :     0.013775
      dx2y2   :     0.064242
      dxy     :     0.061841
      f0      :     0.006968  f :     0.071784
      f+1     :     0.010749
      f-1     :     0.004046
      f+2     :     0.006078
      f-2     :     0.007524
      f+3     :     0.016969
      f-3     :     0.019450
  3 N s       :     2.715009  s :     2.715009
      pz      :     1.148675  p :     3.132961
      px      :     1.018081
      py      :     0.966205
      dz2     :     0.042737  d :     0.366162
      dxz     :     0.027565
      dyz     :     0.070436
      dx2y2   :     0.092049
      dxy     :     0.133375
      f0      :     0.008919  f :     0.109702
      f+1     :     0.004499
      f-1     :     0.019351
      f+2     :     0.016836
      f-2     :     0.010579
      f+3     :     0.026005
      f-3     :     0.023512
  4 H s       :     0.612054  s :     0.612054
      pz      :     0.140881  p :     0.437839
      px      :     0.168536
      py      :     0.128422
      dz2     :     0.028740  d :     0.304043
      dxz     :     0.073055
      dyz     :     0.036628
      dx2y2   :     0.098640
      dxy     :     0.066980
  5 C s       :     2.494448  s :     2.494448
      pz      :     0.727991  p :     2.367794
      px      :     0.815411
      py      :     0.824392
      dz2     :     0.145621  d :     0.491907
      dxz     :     0.121188
      dyz     :     0.079679
      dx2y2   :     0.069146
      dxy     :     0.076274
      f0      :     0.042483  f :     0.166496
      f+1     :     0.038301
      f-1     :     0.031760
      f+2     :     0.018520
      f-2     :     0.018155
      f+3     :     0.003096
      f-3     :     0.014181
  6 H s       :     0.650889  s :     0.650889
      pz      :     0.082175  p :     0.324619
      px      :     0.135026
      py      :     0.107417
      dz2     :     0.025445  d :     0.233844
      dxz     :     0.062898
      dyz     :     0.016478
      dx2y2   :     0.080455
      dxy     :     0.048567
  7 H s       :     0.645279  s :     0.645279
      pz      :     0.086629  p :     0.325357
      px      :     0.088664
      py      :     0.150064
      dz2     :     0.036978  d :     0.234702
      dxz     :     0.011866
      dyz     :     0.060942
      dx2y2   :     0.041994
      dxy     :     0.082921
  8 H s       :     0.650846  s :     0.650846
      pz      :     0.102829  p :     0.324676
      px      :     0.123006
      py      :     0.098841
      dz2     :     0.068063  d :     0.233851
      dxz     :     0.040255
      dyz     :     0.025217
      dx2y2   :     0.053650
      dxy     :     0.046667
  9 H s       :     0.612086  s :     0.612086
      pz      :     0.165437  p :     0.437774
      px      :     0.157127
      py      :     0.115211
      dz2     :     0.059720  d :     0.304021
      dxz     :     0.068019
      dyz     :     0.033587
      dx2y2   :     0.077637
      dxy     :     0.065058


                      *****************************
                      * MAYER POPULATION ANALYSIS *
                      *****************************

  NA   - Mulliken gross atomic population
  ZA   - Total nuclear charge
  QA   - Mulliken gross atomic charge
  VA   - Mayer's total valence
  BVA  - Mayer's bonded valence
  FA   - Mayer's free valence

  ATOM       NA         ZA         QA         VA         BVA        FA
  0 S     13.8771    16.0000     2.1229     4.6649     4.6649     0.0000
  1 O      8.9080     8.0000    -0.9080     1.6166     1.6166    -0.0000
  2 O      8.9050     8.0000    -0.9050     1.6208     1.6208     0.0000
  3 N      7.5282     7.0000    -0.5282     3.1093     3.1093    -0.0000
  4 H      0.8596     1.0000     0.1404     1.0750     1.0750    -0.0000
  5 C      6.9921     6.0000    -0.9921     3.7116     3.7116     0.0000
  6 H      0.6914     1.0000     0.3086     0.9991     0.9991     0.0000
  7 H      0.6886     1.0000     0.3114     1.0140     1.0140     0.0000
  8 H      0.6877     1.0000     0.3123     0.9955     0.9955     0.0000
  9 H      0.8622     1.0000     0.1378     1.0788     1.0788    -0.0000

  Mayer bond orders larger than 0.100000
B(  0-S ,  1-O ) :   1.3667 B(  0-S ,  2-O ) :   1.3699 B(  0-S ,  3-N ) :   0.9205 
B(  0-S ,  5-C ) :   0.8375 B(  3-N ,  4-H ) :   0.9846 B(  3-N ,  9-H ) :   0.9886 
B(  5-C ,  6-H ) :   0.8898 B(  5-C ,  7-H ) :   0.9013 B(  5-C ,  8-H ) :   0.8856 


-------
TIMINGS
-------

Total SCF time: 0 days 0 hours 0 min 24 sec 

Total time                  ....      24.421 sec
Sum of individual times     ....      23.784 sec  ( 97.4%)

Fock matrix formation       ....      22.490 sec  ( 92.1%)
  Split-RI-J                ....       1.664 sec  (  7.4% of F)
  Chain of spheres X        ....      16.135 sec  ( 71.7% of F)
  XC integration            ....       4.364 sec  ( 19.4% of F)
    Basis function eval.    ....       0.755 sec  ( 17.3% of XC)
    Density eval.           ....       1.237 sec  ( 28.4% of XC)
    XC-Functional eval.     ....       0.100 sec  (  2.3% of XC)
    XC-Potential eval.      ....       1.497 sec  ( 34.3% of XC)
Diagonalization             ....       0.192 sec  (  0.8%)
Density matrix formation    ....       0.024 sec  (  0.1%)
Population analysis         ....       0.034 sec  (  0.1%)
Initial guess               ....       0.179 sec  (  0.7%)
Orbital Transformation      ....       0.000 sec  (  0.0%)
Orbital Orthonormalization  ....       0.000 sec  (  0.0%)
DIIS solution               ....       0.126 sec  (  0.5%)
SOSCF solution              ....       0.161 sec  (  0.7%)
Grid generation             ....       0.579 sec  (  2.4%)

Maximum memory used throughout the entire SCF-calculation: 85.1 MB


           ************************************************************
           *        Program running with 8 parallel MPI-processes     *
           *              working on a common directory               *
           ************************************************************

------------------------------------------------------------------------------
                                ORCA  MP2 
------------------------------------------------------------------------------

Freezing NCore=18 chemical core electrons

   <<< Use J-auxbasis for calculation of Separable RI-J derivative contributions (Dim=302) >>> 


-------------
RI-MP2 ENERGY
-------------
Dimension of the basis                    ...  349
Memory devoted to MP2                     ... 5000 MB   
Data format for buffers                   ... DOUBLE
Compression type for matrix containers    ... UNCOMPRESSED
Scaling for aa/bb pairs                   ...   2.500e-01
Scaling for ab pairs                      ...   5.300e-01
Overall scaling of the MP2 energy         ...   1.000e+00
Calculating two index integrals           ... done (    0.009 sec)
Cholesky decomposition of V**-1           ... done (    0.070 sec)

-----------------
RI-TRANSFORMATION (AUX index driven)
-----------------

Dimension of the orbital-basis         ... 349
Dimension of the aux-basis             ... 801
Transformation of internal/external MOs...    9-  24 to   25- 348
Number Format for Storage              ... Double (8 Byte)
Integral mode                          ... Direct

First Phase: integral generation and transformation of MO indices
  Aux angular momentum 0               ... done (    0.044 sec)
  Aux angular momentum 1               ... done (    0.085 sec)
  Aux angular momentum 2               ... done (    0.109 sec)
  Aux angular momentum 3               ... done (    0.107 sec)
  Aux angular momentum 4               ... done (    0.074 sec)
Closing buffer VIA ( 0.03 GB; CompressionRatio= 1.00)
  Phase 1 completed in     0.587 sec
Second Phase: sorting and transformation of aux index

IA-Transformation
Memory available                       ... 4951 MB 
Max. # MO pairs treated in a batch     ... 2    
# of internal orbitals                 ... 16
# batches for internal orbitals        ... 1
Closing buffer IAV ( 0.03 GB; CompressionRatio= 1.00)
(ia|v) transformation done in     0.059 sec

  Phase 2 completed in     0.193 sec
RI-Integral transformation completed in     0.783 sec
Opening buffers                              ... done

Starting loop over batches of integrals:

Operator 0  - window                       ... (  9- 24)x( 25-348)
Operator 0  - Memory available             ...  5000 MB
Operator 0  - Memory needed per MO         ...   2.0 MB
Operator 0  - Number of orbitals per batch ... 2
Operator 0  - Number of batches            ... 1

OPERATOR  0   PASS   0:  MOs     9 ...   10 +   11 ...   12 +   13 ...   14 +   15 ...   16
                            +   17 ...   18 +   19 ...   20 +   21 ...   22 +   23 ...   24
  Reading integrals       ... ok
Time spent in pair loops =     0.024 sec
Deleting buffer (Ka|jb)[aa] ...done

-----------------------------------------------
 RI-MP2 CORRELATION ENERGY:     -0.558018536 Eh
-----------------------------------------------


-------
TIMINGS
-------

Total time                :    1.069 sec
Integral trafo            :    0.811 sec ( 75.9%)
I/O of integrals          :    0.003 sec (  0.3%)
K(i,j) Operators          :    0.014 sec (  1.3%)
T(i,j) pair energies      :    0.003 sec (  0.3%)
V-calculation             :    0.009 sec (  0.8%)
V**(-1/2)                 :    0.070 sec (  6.6%)
Gamma(ia|P)               :    0.000 sec (  0.0%)
Gamma-Trafo               :    0.000 sec (  0.0%)
D(virtual)                :    0.000 sec (  0.0%)
D(internal)               :    0.000 sec (  0.0%)
W(virtual)                :    0.000 sec (  0.0%)
W(internal)               :    0.000 sec (  0.0%)
L(virtual)                :    0.000 sec (  0.0%)
L(internal)               :    0.000 sec (  0.0%)
G(D)                      :    0.000 sec (  0.0%)
G(Z)                      :    0.000 sec (  0.0%)
Z-Vector Solution         :    0.000 sec (  0.0%)
3-Index Derivative        :    0.000 sec (  0.0%)
2-Index Derivative        :    0.000 sec (  0.0%)
Separable Gradient (RIJ)  :    0.000 sec (  0.0%)
Separable Gradient (COSX) :    0.000 sec (  0.0%)


---------------------------------------
MP2 TOTAL ENERGY:     -643.904680924 Eh
---------------------------------------

Maximum memory used throughout the entire MP2-calculation: 102.0 MB


-------------------------------------------------------------------------------
                          DFT DISPERSION CORRECTION                            
                                                                               
                              DFTD3 V3.1  Rev 1                                
                          USING Becke-Johnson damping                          
-------------------------------------------------------------------------------
The DSD-PBEP86 functional is recognized
Active option DFTDOPT                   ...         4   

molecular C6(AA) [au] = 1236.004609 


            DFT-D V3
 parameters
 s6 scaling factor         :     0.4180 
 a1 scaling factor         :     0.0000 
 s8 scaling factor         :     0.0000 
 a2 scaling factor         :     5.6500 
 ad hoc parameters k1-k3   :    16.0000     1.3333    -4.0000 

 Edisp/kcal,au: -3.254491075490  -0.005186361103 
 E6   /kcal   :  -3.254491075 
 E8   /kcal   :  -0.000000000 
 % E8         :   0.000000000 

-------------------------   ----------------
Dispersion correction           -0.005186361
-------------------------   ----------------


-------------------------   --------------------
FINAL SINGLE POINT ENERGY      -643.909867285049
-------------------------   --------------------


                            ***************************************
                            *     ORCA property calculations      *
                            ***************************************


  WARNING: The energy has been calculated at the MP2 level but the densities
           used in the property calculations are still SCF densities
           MP2 response densities have not been calculated 
           use %mp2 Density relaxed end
           or  %mp2 Density unrelaxed end

                                    ---------------------
                                    Active property flags
                                    ---------------------
   (+) Dipole Moment


------------------------------------------------------------------------------
                       ORCA ELECTRIC PROPERTIES CALCULATION
------------------------------------------------------------------------------

Dipole Moment Calculation                       ... on
Quadrupole Moment Calculation                   ... off
Polarizability Calculation                      ... off
GBWName                                         ... HA.17.avtz.gbw
Electron density                                ... HA.17.avtz.scfp
The origin for moment calculation is the CENTER OF MASS  = (-3.257003,  0.524516  2.266804)

-------------
DIPOLE MOMENT
-------------
                                X             Y             Z
Electronic contribution:     -0.92427       1.83866       3.43205
Nuclear contribution   :      1.28050      -3.38175      -4.98456
                        -----------------------------------------
Total Dipole Moment    :      0.35623      -1.54309      -1.55251
                        -----------------------------------------
Magnitude (a.u.)       :      2.21773
Magnitude (Debye)      :      5.63703



--------------------
Rotational spectrum 
--------------------
 
Rotational constants in cm-1:     0.158044     0.145817     0.141609 
Rotational constants in MHz :  4738.044196  4371.492927  4245.325077 

 Dipole components along the rotational axes: 
x,y,z [a.u.] :    -0.625907     0.000256    -2.127575 
x,y,z [Debye]:    -1.590929     0.000651    -5.407865 

 

Timings for individual modules:

Sum of individual times         ...       31.131 sec (=   0.519 min)
GTO integral calculation        ...        2.662 sec (=   0.044 min)   8.6 %
SCF iterations                  ...       26.091 sec (=   0.435 min)  83.8 %
MP2 module                      ...        2.378 sec (=   0.040 min)   7.6 %
                             ****ORCA TERMINATED NORMALLY****
TOTAL RUN TIME: 0 days 0 hours 0 minutes 32 seconds 934 msec
