
                                 *****************
                                 * O   R   C   A *
                                 *****************

                                            #,                                       
                                            ###                                      
                                            ####                                     
                                            #####                                    
                                            ######                                   
                                           ########,                                 
                                     ,,################,,,,,                         
                               ,,#################################,,                 
                          ,,##########################################,,             
                       ,#########################################, ''#####,          
                    ,#############################################,,   '####,        
                  ,##################################################,,,,####,       
                ,###########''''           ''''###############################       
              ,#####''   ,,,,##########,,,,          '''####'''          '####       
            ,##' ,,,,###########################,,,                        '##       
           ' ,,###''''                  '''############,,,                           
         ,,##''                                '''############,,,,        ,,,,,,###''
      ,#''                                            '''#######################'''  
     '                                                          ''''####''''         
             ,#######,   #######,   ,#######,      ##                                
            ,#'     '#,  ##    ##  ,#'     '#,    #''#        ######   ,####,        
            ##       ##  ##   ,#'  ##            #'  '#       #        #'  '#        
            ##       ##  #######   ##           ,######,      #####,   #    #        
            '#,     ,#'  ##    ##  '#,     ,#' ,#      #,         ##   #,  ,#        
             '#######'   ##     ##  '#######'  #'      '#     #####' # '####'        



                  #######################################################
                  #                        -***-                        #
                  #          Department of theory and spectroscopy      #
                  #    Directorship and core code : Frank Neese         #
                  #        Max Planck Institute fuer Kohlenforschung    #
                  #                Kaiser Wilhelm Platz 1               #
                  #                 D-45470 Muelheim/Ruhr               #
                  #                      Germany                        #
                  #                                                     #
                  #                  All rights reserved                #
                  #                        -***-                        #
                  #######################################################


                         Program Version 5.0.3 -  RELEASE  -


 With contributions from (in alphabetic order):
   Daniel Aravena         : Magnetic Suceptibility
   Michael Atanasov       : Ab Initio Ligand Field Theory (pilot matlab implementation)
   Alexander A. Auer      : GIAO ZORA, VPT2 properties, NMR spectrum
   Ute Becker             : Parallelization
   Giovanni Bistoni       : ED, misc. LED, open-shell LED, HFLD
   Martin Brehm           : Molecular dynamics
   Dmytro Bykov           : SCF Hessian
   Vijay G. Chilkuri      : MRCI spin determinant printing, contributions to CSF-ICE
   Dipayan Datta          : RHF DLPNO-CCSD density
   Achintya Kumar Dutta   : EOM-CC, STEOM-CC
   Dmitry Ganyushin       : Spin-Orbit,Spin-Spin,Magnetic field MRCI
   Miquel Garcia          : C-PCM and meta-GGA Hessian, CC/C-PCM, Gaussian charge scheme
   Yang Guo               : DLPNO-NEVPT2, F12-NEVPT2, CIM, IAO-localization
   Andreas Hansen         : Spin unrestricted coupled pair/coupled cluster methods
   Benjamin Helmich-Paris : MC-RPA, TRAH-SCF, COSX integrals
   Lee Huntington         : MR-EOM, pCC
   Robert Izsak           : Overlap fitted RIJCOSX, COSX-SCS-MP3, EOM
   Marcus Kettner         : VPT2
   Christian Kollmar      : KDIIS, OOCD, Brueckner-CCSD(T), CCSD density, CASPT2, CASPT2-K
   Simone Kossmann        : Meta GGA functionals, TD-DFT gradient, OOMP2, MP2 Hessian
   Martin Krupicka        : Initial AUTO-CI
   Lucas Lang             : DCDCAS
   Marvin Lechner         : AUTO-CI (C++ implementation), FIC-MRCC
   Dagmar Lenk            : GEPOL surface, SMD
   Dimitrios Liakos       : Extrapolation schemes; Compound Job, initial MDCI parallelization
   Dimitrios Manganas     : Further ROCIS development; embedding schemes
   Dimitrios Pantazis     : SARC Basis sets
   Anastasios Papadopoulos: AUTO-CI, single reference methods and gradients
   Taras Petrenko         : DFT Hessian,TD-DFT gradient, ASA, ECA, R-Raman, ABS, FL, XAS/XES, NRVS
   Peter Pinski           : DLPNO-MP2, DLPNO-MP2 Gradient
   Christoph Reimann      : Effective Core Potentials
   Marius Retegan         : Local ZFS, SOC
   Christoph Riplinger    : Optimizer, TS searches, QM/MM, DLPNO-CCSD(T), (RO)-DLPNO pert. Triples
   Tobias Risthaus        : Range-separated hybrids, TD-DFT gradient, RPA, STAB
   Michael Roemelt        : Original ROCIS implementation
   Masaaki Saitow         : Open-shell DLPNO-CCSD energy and density
   Barbara Sandhoefer     : DKH picture change effects
   Avijit Sen             : IP-ROCIS
   Kantharuban Sivalingam : CASSCF convergence, NEVPT2, FIC-MRCI
   Bernardo de Souza      : ESD, SOC TD-DFT
   Georgi Stoychev        : AutoAux, RI-MP2 NMR, DLPNO-MP2 response
   Willem Van den Heuvel  : Paramagnetic NMR
   Boris Wezisla          : Elementary symmetry handling
   Frank Wennmohs         : Technical directorship


 We gratefully acknowledge several colleagues who have allowed us to
 interface, adapt or use parts of their codes:
   Stefan Grimme, W. Hujo, H. Kruse, P. Pracht,  : VdW corrections, initial TS optimization,
                  C. Bannwarth, S. Ehlert          DFT functionals, gCP, sTDA/sTD-DF
   Ed Valeev, F. Pavosevic, A. Kumar             : LibInt (2-el integral package), F12 methods
   Garnet Chan, S. Sharma, J. Yang, R. Olivares  : DMRG
   Ulf Ekstrom                                   : XCFun DFT Library
   Mihaly Kallay                                 : mrcc  (arbitrary order and MRCC methods)
   Jiri Pittner, Ondrej Demel                    : Mk-CCSD
   Frank Weinhold                                : gennbo (NPA and NBO analysis)
   Christopher J. Cramer and Donald G. Truhlar   : smd solvation model
   Lars Goerigk                                  : TD-DFT with DH, B97 family of functionals
   V. Asgeirsson, H. Jonsson                     : NEB implementation
   FAccTs GmbH                                   : IRC, NEB, NEB-TS, DLPNO-Multilevel, CI-OPT
                                                   MM, QMMM, 2- and 3-layer-ONIOM, Crystal-QMMM,
                                                   LR-CPCM, SF, NACMEs, symmetry and pop. for TD-DFT,
                                                   nearIR, NL-DFT gradient (VV10), updates on ESD,
                                                   ML-optimized integration grids
   S Lehtola, MJT Oliveira, MAL Marques          : LibXC Library
   Liviu Ungur et al                             : ANISO software


 Your calculation uses the libint2 library for the computation of 2-el integrals
 For citations please refer to: http://libint.valeyev.net

 Your ORCA version has been built with support for libXC version: 5.1.0
 For citations please refer to: https://tddft.org/programs/libxc/

 This ORCA versions uses:
   CBLAS   interface :  Fast vector & matrix operations
   LAPACKE interface :  Fast linear algebra routines
   SCALAPACK package :  Parallel linear algebra routines
   Shared memory     :  Shared parallel matrices
   BLAS/LAPACK       :  OpenBLAS 0.3.15  USE64BITINT DYNAMIC_ARCH NO_AFFINITY SkylakeX SINGLE_THREADED
        Core in use  :  SkylakeX
   Copyright (c) 2011-2014, The OpenBLAS Project


Your calculation utilizes the atom-pairwise dispersion correction
with the Becke-Johnson damping scheme (D3BJ)
Cite in your paper:
S.Grimme, S.Ehrlich, L.Goerigk, J Comput Chem, (2011), 32, 1456–1465 
S.Grimme, J.Antony, S.Ehrlich and H.Krieg, J.Chem.Phys., 132, (2010), 154104 
   

================================================================================

----- Orbital basis set information -----
Your calculation utilizes the basis: aug-cc-pVTZ 
    H, B-Ne : Obtained from the ccRepo (grant-hill.group.shef.ac.uk/ccrepo) Feb. 2017
              R. A. Kendall, T. H. Dunning, Jr., R. J. Harrison, J. Chem. Phys. 96, 6796 (1992)
         He : Obtained from the ccRepo (grant-hill.group.shef.ac.uk/ccrepo) Feb. 2017
              D. E. Woon, T. H. Dunning, Jr., J. Chem. Phys. 100, 2975 (1994)
  Li-Be, Na : Obtained from the ccRepo (grant-hill.group.shef.ac.uk/ccrepo) Feb. 2017
              B. P. Prascher, D. E. Woon, K. A. Peterson, T. H. Dunning, Jr., A. K. Wilson, Theor. Chem. Acc. 128, 69 (2011)
         Mg : Obtained from the Peterson Research Group Website (tyr0.chem.wsu.edu/~kipeters) Feb. 2017
              B. P. Prascher, D. E. Woon, K. A. Peterson, T. H. Dunning, Jr., A. K. Wilson, Theor. Chem. Acc. 128, 69 (2011)
      Al-Ar : Obtained from the ccRepo (grant-hill.group.shef.ac.uk/ccrepo) Feb. 2017
              D. E. Woon, T. H. Dunning, Jr., J. Chem. Phys. 98, 1358 (1993)
      Sc-Zn : Obtained from the ccRepo (grant-hill.group.shef.ac.uk/ccrepo) Feb. 2017
              N. B. Balabanov, K. A. Peterson, J. Chem. Phys. 123, 064107 (2005)
              N. B. Balabanov, K. A. Peterson, J. Chem. Phys. 125, 074110 (2006)
      Ga-Kr : Obtained from the ccRepo (grant-hill.group.shef.ac.uk/ccrepo) Feb. 2017
              A. K. Wilson, D. E. Woon, K. A. Peterson, T. H. Dunning, Jr., J. Chem. Phys. 110, 7667 (1999)
     Ag, Au : Obtained from the Peterson Research Group Website (tyr0.chem.wsu.edu/~kipeters) Feb. 2017
              K. A. Peterson, C. Puzzarini, Theor. Chem. Acc. 114, 283 (2005)

----- AuxJ basis set information -----
Your calculation utilizes the auxiliary basis: def2/J
   F. Weigend, Phys. Chem. Chem. Phys. 8, 1057 (2006).

----- AuxC basis set information -----
Your calculation utilizes the auxiliary basis: aug-cc-pVTZ/C 
  H-He, B-F, Al-Ar, Ga-Kr : Obtained from the EMSL Basis Set Exchange (bse.pnl.gov) Feb. 2017
                            F. Weigend, A. Kohn, C. Hattig, J. Chem. Phys. 116, 3175 (2002)
                   Be, Mg : Obtained from the TURBOMOLE 7.0 basis set library
                            C. Haettig, Phys. Chem. Chem. Phys. 7, 59 (2005)
                       Ne : Obtained from the EMSL Basis Set Exchange (bse.pnl.gov) Feb. 2017
                            C. Haettig, Phys. Chem. Chem. Phys. 7, 59 (2005)
                            F. Weigend, A. Kohn, C. Hattig, J. Chem. Phys. 116, 3175 (2002)
                    Sc-Zn : Obtained from the EMSL Basis Set Exchange (bse.pnl.gov) Feb. 2017
                            J. G. Hill, J. A. Platts, J. Chem. Phys. 128, 044104 (2008)

================================================================================
                                        WARNINGS
                       Please study these warnings very carefully!
================================================================================


WARNING: No MP2 level density has been requested!
         To caclulate MP2 level properties use
         %mp2 Density relaxed end
         or
         %mp2 Density unrelaxed end
         Otherwise for double-hybrid DFT only the energy is correct!

WARNING: There are different parametrizations of Gershom Martin's DSD-DFs
         for use with and without D3(BJ)!
         You are using the D3(BJ) parametrized version,
         consistent with the GMTKN55 benchmark (L. Goerigk et al., PCCP 2017, 19, 32184)

WARNING: The frozen-core approximation is turned on by default for 
         the MP2 part of double-hybrid DFT.

INFO   : the flag for use of the SHARK integral package has been found!

================================================================================
                                       INPUT FILE
================================================================================
NAME = HA.14.avtz.com
|  1> !PAL8
|  2> !RI-DSD-PBEP86 D3BJ aug-cc-pVTZ aug-cc-pVTZ/C TightSCF
|  3> %maxcore 5000
|  4> 
|  5> * xyz 0 1
|  6> C -1.1913817341  0.7189290956 -0.8186265869
|  7> C -2.3824717839  0.529518193 -1.5323676672
|  8> C -3.6897318827  0.1391813199 -0.9107504302
|  9> C -2.3677813653  0.6722552102 -2.9194609189
| 10> H -3.2858484472  0.4891531033 -3.4695249015
| 11> C -1.1976385932  1.0366348085 -3.5816692577
| 12> C -0.0232047398  1.2355620065 -2.8613610605
| 13> H  0.8948404318  1.504896316 -3.3741752342
| 14> C -0.0147788041  1.0622508462 -1.4779064093
| 15> H  0.9009610336  1.1615676671 -0.9038761975
| 16> S -1.0745313275  0.4220400511  0.9540731545
| 17> O -1.9397867958 -0.7026659916  1.2575962544
| 18> O  0.3408020491  0.4188656126  1.2834374843
| 19> N -1.7006103422  1.7546236781  1.7226811842
| 20> H -2.6448858821  1.9596834009  1.4024349811
| 21> H -1.0732106534  2.551653392  1.6492661359
| 22> O -4.4182951021 -0.7045456137 -1.3648825811
| 23> O -3.9894267797  0.8797969622  0.1707494103
| 24> C -5.1077281136  0.4062108761  0.9348434456
| 25> H -1.2032292359  1.1528061266 -4.6608996951
| 26> H -5.2144953686  1.1036391337  1.7645700738
| 27> H -4.8886056806 -0.5985965149  1.3018223291
| 28> H -6.0072028825  0.3955093206  0.3175684869
| 29> *
| 30> 
| 31>                          ****END OF INPUT****
================================================================================

                       ****************************
                       * Single Point Calculation *
                       ****************************

---------------------------------
CARTESIAN COORDINATES (ANGSTROEM)
---------------------------------
  C     -1.191382    0.718929   -0.818627
  C     -2.382472    0.529518   -1.532368
  C     -3.689732    0.139181   -0.910750
  C     -2.367781    0.672255   -2.919461
  H     -3.285848    0.489153   -3.469525
  C     -1.197639    1.036635   -3.581669
  C     -0.023205    1.235562   -2.861361
  H      0.894840    1.504896   -3.374175
  C     -0.014779    1.062251   -1.477906
  H      0.900961    1.161568   -0.903876
  S     -1.074531    0.422040    0.954073
  O     -1.939787   -0.702666    1.257596
  O      0.340802    0.418866    1.283437
  N     -1.700610    1.754624    1.722681
  H     -2.644886    1.959683    1.402435
  H     -1.073211    2.551653    1.649266
  O     -4.418295   -0.704546   -1.364883
  O     -3.989427    0.879797    0.170749
  C     -5.107728    0.406211    0.934843
  H     -1.203229    1.152806   -4.660900
  H     -5.214495    1.103639    1.764570
  H     -4.888606   -0.598597    1.301822
  H     -6.007203    0.395509    0.317568

----------------------------
CARTESIAN COORDINATES (A.U.)
----------------------------
  NO LB      ZA    FRAG     MASS         X           Y           Z
   0 C     6.0000    0    12.011   -2.251385    1.358579   -1.546980
   1 C     6.0000    0    12.011   -4.502219    1.000644   -2.895755
   2 C     6.0000    0    12.011   -6.972583    0.263015   -1.721069
   3 C     6.0000    0    12.011   -4.474458    1.270378   -5.516982
   4 H     1.0000    0     1.008   -6.209354    0.924365   -6.556452
   5 C     6.0000    0    12.011   -2.263209    1.958956   -6.768374
   6 C     6.0000    0    12.011   -0.043851    2.334874   -5.407189
   7 H     1.0000    0     1.008    1.691003    2.843842   -6.376267
   8 C     6.0000    0    12.011   -0.027928    2.007363   -2.792838
   9 H     1.0000    0     1.008    1.702570    2.195045   -1.708078
  10 S    16.0000    0    32.060   -2.030570    0.797540    1.802937
  11 O     8.0000    0    15.999   -3.665666   -1.327846    2.376513
  12 O     8.0000    0    15.999    0.644023    0.791541    2.425345
  13 N     7.0000    0    14.007   -3.213688    3.315758    3.255396
  14 H     1.0000    0     1.008   -4.998110    3.703265    2.650218
  15 H     1.0000    0     1.008   -2.028074    4.821926    3.116661
  16 O     8.0000    0    15.999   -8.349368   -1.331398   -2.579254
  17 O     8.0000    0    15.999   -7.538924    1.662575    0.322670
  18 C     6.0000    0    12.011   -9.652207    0.767627    1.766598
  19 H     1.0000    0     1.008   -2.273774    2.178488   -8.807824
  20 H     1.0000    0     1.008   -9.853968    2.085576    3.334554
  21 H     1.0000    0     1.008   -9.238126   -1.131183    2.460088
  22 H     1.0000    0     1.008  -11.351968    0.747404    0.600117

--------------------------------
INTERNAL COORDINATES (ANGSTROEM)
--------------------------------
 C      0   0   0     0.000000000000     0.00000000     0.00000000
 C      1   0   0     1.401427246226     0.00000000     0.00000000
 C      2   1   0     1.499233080529   124.40964403     0.00000000
 C      2   1   3     1.394495375894   118.93419537   181.85280354
 H      4   2   1     1.085791846246   118.53818232   177.83310795
 C      4   2   1     1.393027811184   120.56217865   358.08806840
 C      6   4   2     1.392016812064   120.00638498     1.28414517
 H      7   6   4     1.085507385567   120.30058360   179.07174663
 C      1   2   3     1.391730636130   120.70499535   179.03103106
 H      9   1   2     1.085335876733   119.03516410   182.54082566
 S      1   2   3     1.801183359746   122.28300600     3.42955722
 O     11   1   2     1.451122661970   107.15317987    34.90115555
 O     11   1   2     1.453155017788   106.65547968   167.20793293
 N     11   1   2     1.660876984883   107.38254916   279.69103272
 H     14  11   1     1.017970243066   111.45099584    54.78012939
 H     14  11   1     1.016993856256   111.27492825   287.58025087
 O      3   2   1     1.203709065192   123.63012642   224.69305647
 O      3   2   1     1.344607922745   112.60846691    47.76964375
 C     18   3   2     1.434824501161   114.85014665   190.06779091
 H      6   4   2     1.085479326125   119.75583072   180.55416037
 H     19  18   3     1.089151825405   105.70823421   179.81039745
 H     19  18   3     1.091936827196   109.04426668    60.80534476
 H     19  18   3     1.090961849844   110.15270446   299.65786368

---------------------------
INTERNAL COORDINATES (A.U.)
---------------------------
 C      0   0   0     0.000000000000     0.00000000     0.00000000
 C      1   0   0     2.648313691982     0.00000000     0.00000000
 C      2   1   0     2.833139933114   124.40964403     0.00000000
 C      2   1   3     2.635214355459   118.93419537   181.85280354
 H      4   2   1     2.051849227849   118.53818232   177.83310795
 C      4   2   1     2.632441060073   120.56217865   358.08806840
 C      6   4   2     2.630530548616   120.00638498     1.28414517
 H      7   6   4     2.051311675070   120.30058360   179.07174663
 C      1   2   3     2.629989754474   120.70499535   179.03103106
 H      9   1   2     2.050987570345   119.03516410   182.54082566
 S      1   2   3     3.403743266896   122.28300600     3.42955722
 O     11   1   2     2.742224417849   107.15317987    34.90115555
 O     11   1   2     2.746065013753   106.65547968   167.20793293
 N     11   1   2     3.138602643563   107.38254916   279.69103272
 H     14  11   1     1.923684971876   111.45099584    54.78012939
 H     14  11   1     1.921839868205   111.27492825   287.58025087
 O      3   2   1     2.274680478131   123.63012642   224.69305647
 O      3   2   1     2.540940731489   112.60846691    47.76964375
 C     18   3   2     2.711425357434   114.85014665   190.06779091
 H      6   4   2     2.051258650410   119.75583072   180.55416037
 H     19  18   3     2.058198668276   105.70823421   179.81039745
 H     19  18   3     2.063461558943   109.04426668    60.80534476
 H     19  18   3     2.061619118762   110.15270446   299.65786368

---------------------
BASIS SET INFORMATION
---------------------
There are 5 groups of distinct atoms

 Group   1 Type C   : 19s6p3d2f contracted to 5s4p3d2f pattern {88111/3111/111/11}
 Group   2 Type H   : 6s3p2d contracted to 4s3p2d pattern {3111/111/11}
 Group   3 Type S   : 42s17p3d2f contracted to 6s5p3d2f pattern {131313111/77111/111/11}
 Group   4 Type O   : 19s6p3d2f contracted to 5s4p3d2f pattern {88111/3111/111/11}
 Group   5 Type N   : 19s6p3d2f contracted to 5s4p3d2f pattern {88111/3111/111/11}

Atom   0C    basis set group =>   1
Atom   1C    basis set group =>   1
Atom   2C    basis set group =>   1
Atom   3C    basis set group =>   1
Atom   4H    basis set group =>   2
Atom   5C    basis set group =>   1
Atom   6C    basis set group =>   1
Atom   7H    basis set group =>   2
Atom   8C    basis set group =>   1
Atom   9H    basis set group =>   2
Atom  10S    basis set group =>   3
Atom  11O    basis set group =>   4
Atom  12O    basis set group =>   4
Atom  13N    basis set group =>   5
Atom  14H    basis set group =>   2
Atom  15H    basis set group =>   2
Atom  16O    basis set group =>   4
Atom  17O    basis set group =>   4
Atom  18C    basis set group =>   1
Atom  19H    basis set group =>   2
Atom  20H    basis set group =>   2
Atom  21H    basis set group =>   2
Atom  22H    basis set group =>   2
---------------------------------
AUXILIARY/J BASIS SET INFORMATION
---------------------------------
There are 5 groups of distinct atoms

 Group   1 Type C   : 12s5p4d2f1g contracted to 6s4p3d1f1g pattern {711111/2111/211/2/1}
 Group   2 Type H   : 5s2p1d contracted to 3s1p1d pattern {311/2/1}
 Group   3 Type S   : 14s5p5d2f1g contracted to 8s4p3d1f1g pattern {71111111/2111/311/2/1}
 Group   4 Type O   : 12s5p4d2f1g contracted to 6s4p3d1f1g pattern {711111/2111/211/2/1}
 Group   5 Type N   : 12s5p4d2f1g contracted to 6s4p3d1f1g pattern {711111/2111/211/2/1}

Atom   0C    basis set group =>   1
Atom   1C    basis set group =>   1
Atom   2C    basis set group =>   1
Atom   3C    basis set group =>   1
Atom   4H    basis set group =>   2
Atom   5C    basis set group =>   1
Atom   6C    basis set group =>   1
Atom   7H    basis set group =>   2
Atom   8C    basis set group =>   1
Atom   9H    basis set group =>   2
Atom  10S    basis set group =>   3
Atom  11O    basis set group =>   4
Atom  12O    basis set group =>   4
Atom  13N    basis set group =>   5
Atom  14H    basis set group =>   2
Atom  15H    basis set group =>   2
Atom  16O    basis set group =>   4
Atom  17O    basis set group =>   4
Atom  18C    basis set group =>   1
Atom  19H    basis set group =>   2
Atom  20H    basis set group =>   2
Atom  21H    basis set group =>   2
Atom  22H    basis set group =>   2
---------------------------------
AUXILIARY/C BASIS SET INFORMATION
---------------------------------
There are 5 groups of distinct atoms

 Group   1 Type C   : 9s7p6d4f2g contracted to 9s7p6d4f2g pattern {111111111/1111111/111111/1111/11}
 Group   2 Type H   : 5s4p3d2f contracted to 5s4p3d2f pattern {11111/1111/111/11}
 Group   3 Type S   : 11s9p8d6f3g contracted to 11s9p8d6f3g pattern {11111111111/111111111/11111111/111111/111}
 Group   4 Type O   : 9s7p6d4f2g contracted to 9s7p6d4f2g pattern {111111111/1111111/111111/1111/11}
 Group   5 Type N   : 9s7p6d4f2g contracted to 9s7p6d4f2g pattern {111111111/1111111/111111/1111/11}

Atom   0C    basis set group =>   1
Atom   1C    basis set group =>   1
Atom   2C    basis set group =>   1
Atom   3C    basis set group =>   1
Atom   4H    basis set group =>   2
Atom   5C    basis set group =>   1
Atom   6C    basis set group =>   1
Atom   7H    basis set group =>   2
Atom   8C    basis set group =>   1
Atom   9H    basis set group =>   2
Atom  10S    basis set group =>   3
Atom  11O    basis set group =>   4
Atom  12O    basis set group =>   4
Atom  13N    basis set group =>   5
Atom  14H    basis set group =>   2
Atom  15H    basis set group =>   2
Atom  16O    basis set group =>   4
Atom  17O    basis set group =>   4
Atom  18C    basis set group =>   1
Atom  19H    basis set group =>   2
Atom  20H    basis set group =>   2
Atom  21H    basis set group =>   2
Atom  22H    basis set group =>   2


           ************************************************************
           *        Program running with 8 parallel MPI-processes     *
           *              working on a common directory               *
           ************************************************************
------------------------------------------------------------------------------
                           ORCA GTO INTEGRAL CALCULATION
                           -- RI-GTO INTEGRALS CHOSEN --
------------------------------------------------------------------------------
------------------------------------------------------------------------------
                   ___                                                        
                  /   \      - P O W E R E D   B Y -                         
                 /     \                                                     
                 |  |  |   _    _      __       _____    __    __             
                 |  |  |  | |  | |    /  \     |  _  \  |  |  /  |          
                  \  \/   | |  | |   /    \    | | | |  |  | /  /          
                 / \  \   | |__| |  /  /\  \   | |_| |  |  |/  /          
                |  |  |   |  __  | /  /__\  \  |    /   |      \           
                |  |  |   | |  | | |   __   |  |    \   |  |\   \          
                \     /   | |  | | |  |  |  |  | |\  \  |  | \   \       
                 \___/    |_|  |_| |__|  |__|  |_| \__\ |__|  \__/        
                                                                              
                      - O R C A' S   B I G   F R I E N D -                    
                                      &                                       
                       - I N T E G R A L  F E E D E R -                       
                                                                              
 v1 FN, 2020, v2 2021                                                         
------------------------------------------------------------------------------


Reading SHARK input file HA.14.avtz.SHARKINP.tmp ... ok
----------------------
SHARK INTEGRAL PACKAGE
----------------------

Number of atoms                             ...     23
Number of basis functions                   ...    958
Number of shells                            ...    372
Maximum angular momentum                    ...      3
Integral batch strategy                     ... SHARK/LIBINT Hybrid
RI-J (if used) integral strategy            ... SPLIT-RIJ (Revised 2003 algorithm where possible)
Printlevel                                  ...      1
Contraction scheme used                     ... PARTIAL GENERAL contraction
Coulomb Range Separation                    ... NOT USED
Exchange Range Separation                   ... NOT USED
Finite Nucleus Model                        ... NOT USED
Auxiliary Coulomb fitting basis             ... AVAILABLE
   # of basis functions in Aux-J            ...    787
   # of shells in Aux-J                     ...    257
   Maximum angular momentum in Aux-J        ...      4
Auxiliary J/K fitting basis                 ... NOT available
Auxiliary Correlation fitting basis         ... AVAILABLE
   # of basis functions in Aux-C            ...   1939
   # of shells in Aux-C                     ...    527
   Maximum angular momentum in Aux-C        ...      4
Auxiliary 'external' fitting basis          ... NOT available
Integral threshold                          ...     2.500000e-11
Primitive cut-off                           ...     2.500000e-12
Primitive pair pre-selection threshold      ...     2.500000e-12

Calculating pre-screening integrals         ... done (  0.1 sec) Dimension = 372
Calculating pre-screening integrals (ORCA)  ... done (  0.2 sec) Dimension = 279
Organizing shell pair data                  ... done (  0.5 sec)
Shell pair information
Total number of shell pairs                 ...     69378
Shell pairs after pre-screening             ...     53027
Total number of primitive shell pairs       ...     86802
Primitive shell pairs kept                  ...     61418
          la=0 lb=0:  11613 shell pairs
          la=1 lb=0:  13640 shell pairs
          la=1 lb=1:   3585 shell pairs
          la=2 lb=0:   9200 shell pairs
          la=2 lb=1:   4774 shell pairs
          la=2 lb=2:   1646 shell pairs
          la=3 lb=0:   4354 shell pairs
          la=3 lb=1:   2273 shell pairs
          la=3 lb=2:   1557 shell pairs
          la=3 lb=3:    385 shell pairs

Calculating one electron integrals          ... done (  0.1 sec)
Calculating RI/J V-Matrix + Cholesky decomp.... done (  0.1 sec)
Calculating RI/C V-Matrix + Cholesky decomp.... done (  0.2 sec)
Calculating Nuclear repulsion               ... done (  0.0 sec) ENN=   1085.659389363546 Eh

SHARK setup successfully completed in   1.7 seconds

Maximum memory used throughout the entire GTOINT-calculation: 88.8 MB


           ************************************************************
           *        Program running with 8 parallel MPI-processes     *
           *              working on a common directory               *
           ************************************************************
-------------------------------------------------------------------------------
                                 ORCA SCF
-------------------------------------------------------------------------------

------------
SCF SETTINGS
------------
Hamiltonian:
 Density Functional     Method          .... DFT(GTOs)
 Exchange Functional    Exchange        .... PBE
   PBE kappa parameter   XKappa         ....  0.804000
   PBE mue parameter    XMuePBE         ....  0.219520
 Correlation Functional Correlation     .... P86
 LDA part of GGA corr.  LDAOpt          .... VWN-5
 Gradients option       PostSCFGGA      .... off
 Hybrid DFT is turned on
   Fraction HF Exchange ScalHFX         ....  0.700000
   Scaling of DF-GGA-X  ScalDFX         ....  0.300000
   Scaling of DF-GGA-C  ScalDFC         ....  0.430000
   Scaling of DF-LDA-C  ScalLDAC        ....  0.430000
   Perturbative correction              ....  1.000000
   Density functional embedding theory  .... OFF
   NL short-range parameter             .... 14.200000
 RI-approximation to the Coulomb term is turned on
   Number of AuxJ basis functions       .... 787
   RIJ-COSX (HFX calculated with COS-X)).... on


General Settings:
 Integral files         IntName         .... HA.14.avtz
 Hartree-Fock type      HFTyp           .... RHF
 Total Charge           Charge          ....    0
 Multiplicity           Mult            ....    1
 Number of Electrons    NEL             ....  112
 Basis Dimension        Dim             ....  855
 Nuclear Repulsion      ENuc            ....   1085.6593893635 Eh

Convergence Acceleration:
 DIIS                   CNVDIIS         .... on
   Start iteration      DIISMaxIt       ....    12
   Startup error        DIISStart       ....  0.200000
   # of expansion vecs  DIISMaxEq       ....     5
   Bias factor          DIISBfac        ....   1.050
   Max. coefficient     DIISMaxC        ....  10.000
 Trust-Rad. Augm. Hess. CNVTRAH         .... auto
   Auto Start mean grad. ratio tolernc. ....  1.125000
   Auto Start start iteration           ....    20
   Auto Start num. interpolation iter.  ....    10
   Max. Number of Micro iterations      ....    16
   Max. Number of Macro iterations      .... Maxiter - #DIIS iter
   Number of Davidson start vectors     ....     2
   Converg. threshold I  (grad. norm)   ....   1.000e-05
   Converg. threshold II (energy diff.) ....   1.000e-08
   Grad. Scal. Fac. for Micro threshold ....   0.100
   Minimum threshold for Micro iter.    ....   0.010
   NR start threshold (gradient norm)   ....   0.001
   Initial trust radius                 ....   0.400
   Minimum AH scaling param. (alpha)    ....   1.000
   Maximum AH scaling param. (alpha)    .... 1000.000
   Orbital update algorithm             .... Taylor
   White noise on init. David. guess    .... on
   Maximum white noise                  ....   0.010
   Quad. conv. algorithm                .... NR
 SOSCF                  CNVSOSCF        .... on
   Start iteration      SOSCFMaxIt      ....   150
   Startup grad/error   SOSCFStart      ....  0.003300
 Level Shifting         CNVShift        .... on
   Level shift para.    LevelShift      ....    0.2500
   Turn off err/grad.   ShiftErr        ....    0.0010
 Zerner damping         CNVZerner       .... off
 Static damping         CNVDamp         .... on
   Fraction old density DampFac         ....    0.7000
   Max. Damping (<1)    DampMax         ....    0.9800
   Min. Damping (>=0)   DampMin         ....    0.0000
   Turn off err/grad.   DampErr         ....    0.1000
 Fernandez-Rico         CNVRico         .... off

SCF Procedure:
 Maximum # iterations   MaxIter         ....   125
 SCF integral mode      SCFMode         .... Direct
   Integral package                     .... SHARK and LIBINT hybrid scheme
 Reset frequency        DirectResetFreq ....    20
 Integral Threshold     Thresh          ....  2.500e-11 Eh
 Primitive CutOff       TCut            ....  2.500e-12 Eh

Convergence Tolerance:
 Convergence Check Mode ConvCheckMode   .... Total+1el-Energy
 Convergence forced     ConvForced      .... 0
 Energy Change          TolE            ....  1.000e-08 Eh
 1-El. energy change                    ....  1.000e-05 Eh
 Orbital Gradient       TolG            ....  1.000e-05
 Orbital Rotation angle TolX            ....  1.000e-05
 DIIS Error             TolErr          ....  5.000e-07


Diagonalization of the overlap matrix:
Smallest eigenvalue                        ... 4.589e-07
Time for diagonalization                   ...    0.126 sec
Threshold for overlap eigenvalues          ... 1.000e-08
Number of eigenvalues below threshold      ... 0
Time for construction of square roots      ...    0.067 sec
Total time needed                          ...    0.199 sec

Time for model grid setup =    0.165 sec

------------------------------
INITIAL GUESS: MODEL POTENTIAL
------------------------------
Loading Hartree-Fock densities                     ... done
Calculating cut-offs                               ... done
Initializing the effective Hamiltonian             ... done
Setting up the integral package (SHARK)            ... done
Starting the Coulomb interaction                   ... done (   0.5 sec)
Reading the grid                                   ... done
Mapping shells                                     ... done
Starting the XC term evaluation                    ... done (   0.6 sec)
  promolecular density results
     # of electrons  =    111.993563919
     EX              =   -107.736654196
     EC              =     -0.009607652
     EX+EC           =   -107.746261848
Transforming the Hamiltonian                       ... done (   0.1 sec)
Diagonalizing the Hamiltonian                      ... done (   0.1 sec)
Back transforming the eigenvectors                 ... done (   0.0 sec)
Now organizing SCF variables                       ... done
                      ------------------
                      INITIAL GUESS DONE (   1.5 sec)
                      ------------------
-------------------
DFT GRID GENERATION
-------------------

General Integration Accuracy     IntAcc      ... 4.388
Radial Grid Type                 RadialGrid  ... OptM3 with GC (2021)
Angular Grid (max. ang.)         AngularGrid ... 4 (Lebedev-302)
Angular grid pruning method      GridPruning ... 4 (adaptive)
Weight generation scheme         WeightScheme... Becke
Basis function cutoff            BFCut       ... 1.0000e-11
Integration weight cutoff        WCut        ... 1.0000e-14
Angular grids for H and He will be reduced by one unit
Partially contracted basis set               ... off
Rotationally invariant grid construction     ... off

Total number of grid points                  ...   119637
Total number of batches                      ...     1881
Average number of points per batch           ...       63
Average number of grid points per atom       ...     5202
Time for grid setup =    0.671 sec

--------------------
COSX GRID GENERATION
--------------------

GRIDX 1
-------
General Integration Accuracy     IntAcc      ... 3.816
Radial Grid Type                 RadialGrid  ... OptM3 with GC (2021)
Angular Grid (max. ang.)         AngularGrid ... 1 (Lebedev-50)
Angular grid pruning method      GridPruning ... 4 (adaptive)
Weight generation scheme         WeightScheme... Becke
Basis function cutoff            BFCut       ... 1.0000e-11
Integration weight cutoff        WCut        ... 1.0000e-14
Angular grids for H and He will be reduced by one unit
Partially contracted basis set               ... on
Rotationally invariant grid construction     ... off

Total number of grid points                  ...    14952
Total number of batches                      ...      247
Average number of points per batch           ...       60
Average number of grid points per atom       ...      650
UseSFitting                                  ... on

GRIDX 2
-------
General Integration Accuracy     IntAcc      ... 4.020
Radial Grid Type                 RadialGrid  ... OptM3 with GC (2021)
Angular Grid (max. ang.)         AngularGrid ... 2 (Lebedev-110)
Angular grid pruning method      GridPruning ... 4 (adaptive)
Weight generation scheme         WeightScheme... Becke
Basis function cutoff            BFCut       ... 1.0000e-11
Integration weight cutoff        WCut        ... 1.0000e-14
Angular grids for H and He will be reduced by one unit
Partially contracted basis set               ... on
Rotationally invariant grid construction     ... off

Total number of grid points                  ...    36577
Total number of batches                      ...      584
Average number of points per batch           ...       62
Average number of grid points per atom       ...     1590
UseSFitting                                  ... on

GRIDX 3
-------
General Integration Accuracy     IntAcc      ... 4.338
Radial Grid Type                 RadialGrid  ... OptM3 with GC (2021)
Angular Grid (max. ang.)         AngularGrid ... 3 (Lebedev-194)
Angular grid pruning method      GridPruning ... 4 (adaptive)
Weight generation scheme         WeightScheme... Becke
Basis function cutoff            BFCut       ... 1.0000e-11
Integration weight cutoff        WCut        ... 1.0000e-14
Angular grids for H and He will be reduced by one unit
Partially contracted basis set               ... on
Rotationally invariant grid construction     ... off

Total number of grid points                  ...    81256
Total number of batches                      ...     1280
Average number of points per batch           ...       63
Average number of grid points per atom       ...     3533
UseSFitting                                  ... on

Time for X-Grid setup             =    2.151 sec

 re-compute Schwartz prescreening matrix in partically contracted basis (1) ...done (   0.105 sec)
--------------
SCF ITERATIONS
--------------
ITER       Energy         Delta-E        Max-DP      RMS-DP      [F,P]     Damp
               ***  Starting incremental Fock matrix formation  ***
  0  -1061.0916398864   0.000000000000 0.21879107  0.00187430  0.2911322 0.7000
  1  -1061.2907412921  -0.199101405694 0.17973197  0.00146068  0.1465611 0.7000
                               ***Turning on DIIS***
  2  -1061.3849863472  -0.094245055093 0.42778856  0.00337707  0.0682811 0.0000
  3  -1061.5498201851  -0.164833837917 0.04370681  0.00055066  0.0611451 0.0000
  4  -1061.5716456547  -0.021825469529 0.03024664  0.00022097  0.0085074 0.0000
  5  -1061.5725395304  -0.000893875754 0.00603576  0.00007946  0.0042701 0.0000
                      *** Initiating the SOSCF procedure ***
                           *** Shutting down DIIS ***
                      *** Re-Reading the Fockian *** 
                      *** Removing any level shift *** 
ITER      Energy       Delta-E        Grad      Rot      Max-DP    RMS-DP
  6  -1061.57270851  -0.0001689818  0.000533  0.000533  0.013321  0.000079
               *** Restarting incremental Fock matrix formation ***
  7  -1061.57270476   0.0000037485  0.000229  0.000649  0.070674  0.000517
  8  -1061.57271386  -0.0000091003  0.000170  0.000597  0.029418  0.000222
  9  -1061.57271561  -0.0000017477  0.000088  0.000138  0.018330  0.000164
 10  -1061.57271648  -0.0000008651  0.000024  0.000059  0.011870  0.000069
 11  -1061.57271652  -0.0000000439  0.000021  0.000037  0.010432  0.000053
 12  -1061.57271654  -0.0000000217  0.000005  0.000017  0.004712  0.000039
                  ***Gradient check signals convergence***
              ***Rediagonalizing the Fockian in SOSCF/NRSCF***

               *****************************************************
               *                     SUCCESS                       *
               *           SCF CONVERGED AFTER  13 CYCLES          *
               *****************************************************

Old exchange energy                            =    -76.604905241 Eh
New exchange energy                            =    -76.604705982 Eh
Exchange energy change after final integration =      0.000199259 Eh
Total energy after final integration           =  -1061.572517283 Eh
Final COS-X integration done in                =    31.518 sec

----------------
TOTAL SCF ENERGY
----------------

Total Energy       :        -1061.57251728 Eh          -28886.85677 eV

Components:
Nuclear Repulsion  :         1085.65938936 Eh           29542.29389 eV
Electronic Energy  :        -2147.23190665 Eh          -58429.15066 eV
One Electron Energy:        -3612.99189818 Eh          -98314.50776 eV
Two Electron Energy:         1465.75999153 Eh           39885.35710 eV
Max COSX asymmetry :            0.00002126 Eh               0.00058 eV

Virial components:
Potential Energy   :        -2120.06008867 Eh          -57689.76790 eV
Kinetic Energy     :         1058.48757139 Eh           28802.91113 eV
Virial Ratio       :            2.00291448


DFT components:
N(Alpha)           :       56.000004189514 electrons
N(Beta)            :       56.000004189514 electrons
N(Total)           :      112.000008379029 electrons
E(X)               :      -32.720492323667 Eh       
E(C)               :       -1.857640940441 Eh       
E(XC)              :      -34.578133264108 Eh       
DFET-embed. en.    :        0.000000000000 Eh       

---------------
SCF CONVERGENCE
---------------

  Last Energy change         ...    3.4674e-10  Tolerance :   1.0000e-08
  Last MAX-Density change    ...    3.3307e-15  Tolerance :   1.0000e-07
  Last RMS-Density change    ...    1.8865e-17  Tolerance :   5.0000e-09
  Last Orbital Gradient      ...    2.2248e-06  Tolerance :   1.0000e-05
  Last Orbital Rotation      ...    6.9218e-06  Tolerance :   1.0000e-05

             **** THE GBW FILE WAS UPDATED (HA.14.avtz.gbw) ****
             **** DENSITY HA.14.avtz.scfp WAS UPDATED ****
             **** ENERGY FILE WAS UPDATED (HA.14.avtz.en.tmp) ****
             **** THE GBW FILE WAS UPDATED (HA.14.avtz.gbw) ****
             **** DENSITY HA.14.avtz.scfp WAS UPDATED ****
----------------
ORBITAL ENERGIES
----------------

  NO   OCC          E(Eh)            E(eV) 
   0   2.0000     -91.046490     -2477.5009 
   1   2.0000     -20.090138      -546.6805 
   2   2.0000     -20.028880      -545.0135 
   3   2.0000     -20.020065      -544.7737 
   4   2.0000     -20.019600      -544.7610 
   5   2.0000     -15.137532      -411.9132 
   6   2.0000     -10.996909      -299.2411 
   7   2.0000     -10.899347      -296.5863 
   8   2.0000     -10.895581      -296.4838 
   9   2.0000     -10.891692      -296.3780 
  10   2.0000     -10.875247      -295.9305 
  11   2.0000     -10.874158      -295.9009 
  12   2.0000     -10.873107      -295.8723 
  13   2.0000     -10.872058      -295.8437 
  14   2.0000      -8.789285      -239.1686 
  15   2.0000      -6.575315      -178.9234 
  16   2.0000      -6.574228      -178.8938 
  17   2.0000      -6.572543      -178.8480 
  18   2.0000      -1.357554       -36.9409 
  19   2.0000      -1.342131       -36.5213 
  20   2.0000      -1.258604       -34.2484 
  21   2.0000      -1.227719       -33.4079 
  22   2.0000      -1.114606       -30.3300 
  23   2.0000      -1.091088       -29.6900 
  24   2.0000      -0.980296       -26.6752 
  25   2.0000      -0.967519       -26.3275 
  26   2.0000      -0.903271       -24.5793 
  27   2.0000      -0.835524       -22.7358 
  28   2.0000      -0.799181       -21.7468 
  29   2.0000      -0.761244       -20.7145 
  30   2.0000      -0.728012       -19.8102 
  31   2.0000      -0.702595       -19.1186 
  32   2.0000      -0.664820       -18.0907 
  33   2.0000      -0.655990       -17.8504 
  34   2.0000      -0.636127       -17.3099 
  35   2.0000      -0.624940       -17.0055 
  36   2.0000      -0.618274       -16.8241 
  37   2.0000      -0.608039       -16.5456 
  38   2.0000      -0.596387       -16.2285 
  39   2.0000      -0.577923       -15.7261 
  40   2.0000      -0.565617       -15.3912 
  41   2.0000      -0.549629       -14.9562 
  42   2.0000      -0.519516       -14.1367 
  43   2.0000      -0.503576       -13.7030 
  44   2.0000      -0.493772       -13.4362 
  45   2.0000      -0.493057       -13.4168 
  46   2.0000      -0.482434       -13.1277 
  47   2.0000      -0.457653       -12.4534 
  48   2.0000      -0.443992       -12.0816 
  49   2.0000      -0.437252       -11.8982 
  50   2.0000      -0.430538       -11.7155 
  51   2.0000      -0.418338       -11.3836 
  52   2.0000      -0.413837       -11.2611 
  53   2.0000      -0.405611       -11.0372 
  54   2.0000      -0.349787        -9.5182 
  55   2.0000      -0.346254        -9.4220 
  56   0.0000       0.003453         0.0940 
  57   0.0000       0.009510         0.2588 
  58   0.0000       0.017344         0.4720 
  59   0.0000       0.023160         0.6302 
  60   0.0000       0.027008         0.7349 
  61   0.0000       0.031257         0.8505 
  62   0.0000       0.038748         1.0544 
  63   0.0000       0.045552         1.2395 
  64   0.0000       0.052003         1.4151 
  65   0.0000       0.055111         1.4996 
  66   0.0000       0.061229         1.6661 
  67   0.0000       0.063787         1.7357 
  68   0.0000       0.071179         1.9369 
  69   0.0000       0.080307         2.1853 
  70   0.0000       0.088414         2.4059 
  71   0.0000       0.089477         2.4348 
  72   0.0000       0.093407         2.5417 
  73   0.0000       0.095609         2.6017 
  74   0.0000       0.097879         2.6634 
  75   0.0000       0.100329         2.7301 
  76   0.0000       0.103233         2.8091 
  77   0.0000       0.103806         2.8247 
  78   0.0000       0.110453         3.0056 
  79   0.0000       0.113431         3.0866 
  80   0.0000       0.116947         3.1823 
  81   0.0000       0.118353         3.2205 
  82   0.0000       0.125089         3.4038 
  83   0.0000       0.127491         3.4692 
  84   0.0000       0.132783         3.6132 
  85   0.0000       0.136974         3.7272 
  86   0.0000       0.138698         3.7742 
  87   0.0000       0.139351         3.7919 
  88   0.0000       0.144407         3.9295 
  89   0.0000       0.149554         4.0696 
  90   0.0000       0.155017         4.2182 
  91   0.0000       0.158496         4.3129 
  92   0.0000       0.162045         4.4095 
  93   0.0000       0.166770         4.5380 
  94   0.0000       0.172578         4.6961 
  95   0.0000       0.174411         4.7460 
  96   0.0000       0.179717         4.8904 
  97   0.0000       0.180845         4.9210 
  98   0.0000       0.187821         5.1109 
  99   0.0000       0.194335         5.2881 
 100   0.0000       0.196310         5.3419 
 101   0.0000       0.203297         5.5320 
 102   0.0000       0.204126         5.5545 
 103   0.0000       0.210594         5.7306 
 104   0.0000       0.212548         5.7837 
 105   0.0000       0.220164         5.9910 
 106   0.0000       0.223469         6.0809 
 107   0.0000       0.224918         6.1203 
 108   0.0000       0.226497         6.1633 
 109   0.0000       0.230750         6.2790 
 110   0.0000       0.232196         6.3184 
 111   0.0000       0.236604         6.4383 
 112   0.0000       0.241753         6.5784 
 113   0.0000       0.242564         6.6005 
 114   0.0000       0.246621         6.7109 
 115   0.0000       0.248274         6.7559 
 116   0.0000       0.253811         6.9065 
 117   0.0000       0.256086         6.9684 
 118   0.0000       0.259063         7.0495 
 119   0.0000       0.262808         7.1514 
 120   0.0000       0.264941         7.2094 
 121   0.0000       0.267962         7.2916 
 122   0.0000       0.271322         7.3830 
 123   0.0000       0.276320         7.5190 
 124   0.0000       0.285763         7.7760 
 125   0.0000       0.287276         7.8172 
 126   0.0000       0.291089         7.9209 
 127   0.0000       0.292689         7.9645 
 128   0.0000       0.296557         8.0697 
 129   0.0000       0.300194         8.1687 
 130   0.0000       0.307548         8.3688 
 131   0.0000       0.308787         8.4025 
 132   0.0000       0.311889         8.4869 
 133   0.0000       0.315944         8.5973 
 134   0.0000       0.322365         8.7720 
 135   0.0000       0.327579         8.9139 
 136   0.0000       0.333984         9.0882 
 137   0.0000       0.337942         9.1959 
 138   0.0000       0.339096         9.2273 
 139   0.0000       0.344233         9.3671 
 140   0.0000       0.351878         9.5751 
 141   0.0000       0.352809         9.6004 
 142   0.0000       0.354316         9.6414 
 143   0.0000       0.360893         9.8204 
 144   0.0000       0.361891         9.8476 
 145   0.0000       0.367933        10.0120 
 146   0.0000       0.370772        10.0892 
 147   0.0000       0.374695        10.1960 
 148   0.0000       0.379727        10.3329 
 149   0.0000       0.385456        10.4888 
 150   0.0000       0.389505        10.5990 
 151   0.0000       0.391883        10.6637 
 152   0.0000       0.393787        10.7155 
 153   0.0000       0.400569        10.9000 
 154   0.0000       0.404251        11.0002 
 155   0.0000       0.405186        11.0257 
 156   0.0000       0.412157        11.2154 
 157   0.0000       0.415605        11.3092 
 158   0.0000       0.418935        11.3998 
 159   0.0000       0.422941        11.5088 
 160   0.0000       0.427039        11.6203 
 161   0.0000       0.433865        11.8061 
 162   0.0000       0.436160        11.8685 
 163   0.0000       0.439595        11.9620 
 164   0.0000       0.441394        12.0109 
 165   0.0000       0.445206        12.1147 
 166   0.0000       0.451989        12.2992 
 167   0.0000       0.454363        12.3638 
 168   0.0000       0.459079        12.4922 
 169   0.0000       0.460041        12.5183 
 170   0.0000       0.460978        12.5439 
 171   0.0000       0.465456        12.6657 
 172   0.0000       0.468554        12.7500 
 173   0.0000       0.473920        12.8960 
 174   0.0000       0.475574        12.9410 
 175   0.0000       0.480877        13.0853 
 176   0.0000       0.485511        13.2114 
 177   0.0000       0.488191        13.2844 
 178   0.0000       0.493629        13.4323 
 179   0.0000       0.495668        13.4878 
 180   0.0000       0.498836        13.5740 
 181   0.0000       0.501630        13.6501 
 182   0.0000       0.506212        13.7747 
 183   0.0000       0.511178        13.9099 
 184   0.0000       0.514023        13.9873 
 185   0.0000       0.519246        14.1294 
 186   0.0000       0.520177        14.1547 
 187   0.0000       0.526510        14.3271 
 188   0.0000       0.530602        14.4384 
 189   0.0000       0.534689        14.5496 
 190   0.0000       0.541036        14.7223 
 191   0.0000       0.549701        14.9581 
 192   0.0000       0.550581        14.9821 
 193   0.0000       0.559457        15.2236 
 194   0.0000       0.564201        15.3527 
 195   0.0000       0.566034        15.4026 
 196   0.0000       0.570769        15.5314 
 197   0.0000       0.577936        15.7264 
 198   0.0000       0.579772        15.7764 
 199   0.0000       0.592965        16.1354 
 200   0.0000       0.594675        16.1819 
 201   0.0000       0.599271        16.3070 
 202   0.0000       0.604115        16.4388 
 203   0.0000       0.613640        16.6980 
 204   0.0000       0.623255        16.9596 
 205   0.0000       0.627523        17.0758 
 206   0.0000       0.629409        17.1271 
 207   0.0000       0.634105        17.2549 
 208   0.0000       0.638133        17.3645 
 209   0.0000       0.646386        17.5891 
 210   0.0000       0.652474        17.7547 
 211   0.0000       0.660373        17.9697 
 212   0.0000       0.665333        18.1046 
 213   0.0000       0.672967        18.3124 
 214   0.0000       0.674462        18.3530 
 215   0.0000       0.686735        18.6870 
 216   0.0000       0.687605        18.7107 
 217   0.0000       0.699044        19.0219 
 218   0.0000       0.702880        19.1263 
 219   0.0000       0.708700        19.2847 
 220   0.0000       0.714970        19.4553 
 221   0.0000       0.727985        19.8095 
 222   0.0000       0.729106        19.8400 
 223   0.0000       0.735733        20.0203 
 224   0.0000       0.738988        20.1089 
 225   0.0000       0.739614        20.1259 
 226   0.0000       0.746389        20.3103 
 227   0.0000       0.750244        20.4152 
 228   0.0000       0.760405        20.6917 
 229   0.0000       0.761550        20.7228 
 230   0.0000       0.771416        20.9913 
 231   0.0000       0.773449        21.0466 
 232   0.0000       0.776135        21.1197 
 233   0.0000       0.782799        21.3011 
 234   0.0000       0.787553        21.4304 
 235   0.0000       0.791491        21.5376 
 236   0.0000       0.792719        21.5710 
 237   0.0000       0.796312        21.6687 
 238   0.0000       0.800547        21.7840 
 239   0.0000       0.807853        21.9828 
 240   0.0000       0.809985        22.0408 
 241   0.0000       0.816318        22.2131 
 242   0.0000       0.820106        22.3162 
 243   0.0000       0.826572        22.4922 
 244   0.0000       0.827652        22.5216 
 245   0.0000       0.831932        22.6380 
 246   0.0000       0.839381        22.8407 
 247   0.0000       0.847866        23.0716 
 248   0.0000       0.855549        23.2807 
 249   0.0000       0.859817        23.3968 
 250   0.0000       0.863178        23.4883 
 251   0.0000       0.864978        23.5372 
 252   0.0000       0.869641        23.6641 
 253   0.0000       0.871444        23.7132 
 254   0.0000       0.882616        24.0172 
 255   0.0000       0.885829        24.1046 
 256   0.0000       0.890172        24.2228 
 257   0.0000       0.892793        24.2941 
 258   0.0000       0.900953        24.5162 
 259   0.0000       0.905213        24.6321 
 260   0.0000       0.908979        24.7346 
 261   0.0000       0.916834        24.9483 
 262   0.0000       0.922025        25.0896 
 263   0.0000       0.922476        25.1018 
 264   0.0000       0.927978        25.2516 
 265   0.0000       0.931783        25.3551 
 266   0.0000       0.936715        25.4893 
 267   0.0000       0.942876        25.6570 
 268   0.0000       0.948712        25.8158 
 269   0.0000       0.952523        25.9195 
 270   0.0000       0.956646        26.0317 
 271   0.0000       0.959893        26.1200 
 272   0.0000       0.968352        26.3502 
 273   0.0000       0.970084        26.3973 
 274   0.0000       0.977167        26.5901 
 275   0.0000       0.981163        26.6988 
 276   0.0000       0.986007        26.8306 
 277   0.0000       0.987725        26.8774 
 278   0.0000       0.997049        27.1311 
 279   0.0000       0.999720        27.2038 
 280   0.0000       1.006443        27.3867 
 281   0.0000       1.009042        27.4574 
 282   0.0000       1.015692        27.6384 
 283   0.0000       1.019206        27.7340 
 284   0.0000       1.025757        27.9123 
 285   0.0000       1.027550        27.9611 
 286   0.0000       1.030280        28.0354 
 287   0.0000       1.033078        28.1115 
 288   0.0000       1.036643        28.2085 
 289   0.0000       1.043162        28.3859 
 290   0.0000       1.048687        28.5362 
 291   0.0000       1.051508        28.6130 
 292   0.0000       1.053136        28.6573 
 293   0.0000       1.058798        28.8114 
 294   0.0000       1.062832        28.9211 
 295   0.0000       1.069998        29.1161 
 296   0.0000       1.075389        29.2628 
 297   0.0000       1.078830        29.3565 
 298   0.0000       1.082009        29.4430 
 299   0.0000       1.082819        29.4650 
 300   0.0000       1.093300        29.7502 
 301   0.0000       1.100819        29.9548 
 302   0.0000       1.103527        30.0285 
 303   0.0000       1.106063        30.0975 
 304   0.0000       1.116937        30.3934 
 305   0.0000       1.126445        30.6521 
 306   0.0000       1.126954        30.6660 
 307   0.0000       1.130508        30.7627 
 308   0.0000       1.134345        30.8671 
 309   0.0000       1.136808        30.9341 
 310   0.0000       1.143367        31.1126 
 311   0.0000       1.154500        31.4155 
 312   0.0000       1.156659        31.4743 
 313   0.0000       1.161924        31.6176 
 314   0.0000       1.169598        31.8264 
 315   0.0000       1.171033        31.8654 
 316   0.0000       1.177299        32.0359 
 317   0.0000       1.180770        32.1304 
 318   0.0000       1.182426        32.1754 
 319   0.0000       1.191682        32.4273 
 320   0.0000       1.195383        32.5280 
 321   0.0000       1.198364        32.6091 
 322   0.0000       1.200879        32.6776 
 323   0.0000       1.210142        32.9296 
 324   0.0000       1.215028        33.0626 
 325   0.0000       1.222401        33.2632 
 326   0.0000       1.224395        33.3175 
 327   0.0000       1.234056        33.5804 
 328   0.0000       1.243788        33.8452 
 329   0.0000       1.246697        33.9244 
 330   0.0000       1.252308        34.0770 
 331   0.0000       1.259056        34.2607 
 332   0.0000       1.271073        34.5877 
 333   0.0000       1.274564        34.6826 
 334   0.0000       1.285660        34.9846 
 335   0.0000       1.290938        35.1282 
 336   0.0000       1.293729        35.2042 
 337   0.0000       1.302882        35.4532 
 338   0.0000       1.311894        35.6985 
 339   0.0000       1.315530        35.7974 
 340   0.0000       1.319077        35.8939 
 341   0.0000       1.333400        36.2837 
 342   0.0000       1.341562        36.5058 
 343   0.0000       1.347067        36.6556 
 344   0.0000       1.347380        36.6641 
 345   0.0000       1.360591        37.0236 
 346   0.0000       1.363089        37.0915 
 347   0.0000       1.369139        37.2562 
 348   0.0000       1.372748        37.3544 
 349   0.0000       1.379928        37.5498 
 350   0.0000       1.385066        37.6896 
 351   0.0000       1.390337        37.8330 
 352   0.0000       1.403077        38.1797 
 353   0.0000       1.408476        38.3266 
 354   0.0000       1.416138        38.5351 
 355   0.0000       1.417825        38.5810 
 356   0.0000       1.422715        38.7141 
 357   0.0000       1.427526        38.8450 
 358   0.0000       1.439434        39.1690 
 359   0.0000       1.445698        39.3394 
 360   0.0000       1.453961        39.5643 
 361   0.0000       1.456228        39.6260 
 362   0.0000       1.464850        39.8606 
 363   0.0000       1.466493        39.9053 
 364   0.0000       1.472250        40.0620 
 365   0.0000       1.483234        40.3609 
 366   0.0000       1.484470        40.3945 
 367   0.0000       1.498446        40.7748 
 368   0.0000       1.500394        40.8278 
 369   0.0000       1.512056        41.1451 
 370   0.0000       1.517673        41.2980 
 371   0.0000       1.525470        41.5101 
 372   0.0000       1.530191        41.6386 
 373   0.0000       1.538238        41.8576 
 374   0.0000       1.547496        42.1095 
 375   0.0000       1.554872        42.3102 
 376   0.0000       1.561994        42.5040 
 377   0.0000       1.564218        42.5645 
 378   0.0000       1.572755        42.7968 
 379   0.0000       1.579985        42.9936 
 380   0.0000       1.584301        43.1110 
 381   0.0000       1.590986        43.2929 
 382   0.0000       1.595107        43.4051 
 383   0.0000       1.599606        43.5275 
 384   0.0000       1.612044        43.8660 
 385   0.0000       1.615037        43.9474 
 386   0.0000       1.621485        44.1228 
 387   0.0000       1.627927        44.2982 
 388   0.0000       1.633552        44.4512 
 389   0.0000       1.649458        44.8840 
 390   0.0000       1.652116        44.9564 
 391   0.0000       1.654151        45.0117 
 392   0.0000       1.664604        45.2962 
 393   0.0000       1.668718        45.4081 
 394   0.0000       1.673201        45.5301 
 395   0.0000       1.688470        45.9456 
 396   0.0000       1.701245        46.2932 
 397   0.0000       1.704055        46.3697 
 398   0.0000       1.708100        46.4798 
 399   0.0000       1.711578        46.5744 
 400   0.0000       1.722969        46.8844 
 401   0.0000       1.731433        47.1147 
 402   0.0000       1.738980        47.3201 
 403   0.0000       1.740762        47.3685 
 404   0.0000       1.748863        47.5890 
 405   0.0000       1.755204        47.7615 
 406   0.0000       1.758731        47.8575 
 407   0.0000       1.773991        48.2727 
 408   0.0000       1.776032        48.3283 
 409   0.0000       1.790192        48.7136 
 410   0.0000       1.795412        48.8556 
 411   0.0000       1.800101        48.9832 
 412   0.0000       1.805423        49.1281 
 413   0.0000       1.812532        49.3215 
 414   0.0000       1.815655        49.4065 
 415   0.0000       1.826577        49.7037 
 416   0.0000       1.837977        50.0139 
 417   0.0000       1.846272        50.2396 
 418   0.0000       1.858161        50.5631 
 419   0.0000       1.860842        50.6361 
 420   0.0000       1.871142        50.9164 
 421   0.0000       1.889427        51.4139 
 422   0.0000       1.895331        51.5746 
 423   0.0000       1.897992        51.6470 
 424   0.0000       1.904778        51.8316 
 425   0.0000       1.910454        51.9861 
 426   0.0000       1.914180        52.0875 
 427   0.0000       1.926485        52.4223 
 428   0.0000       1.930629        52.5351 
 429   0.0000       1.944823        52.9213 
 430   0.0000       1.953563        53.1592 
 431   0.0000       1.957401        53.2636 
 432   0.0000       1.969298        53.5873 
 433   0.0000       1.974049        53.7166 
 434   0.0000       1.984901        54.0119 
 435   0.0000       1.987917        54.0940 
 436   0.0000       1.998757        54.3889 
 437   0.0000       2.015138        54.8347 
 438   0.0000       2.018461        54.9251 
 439   0.0000       2.023882        55.0726 
 440   0.0000       2.034996        55.3750 
 441   0.0000       2.053301        55.8732 
 442   0.0000       2.056375        55.9568 
 443   0.0000       2.066904        56.2433 
 444   0.0000       2.069296        56.3084 
 445   0.0000       2.075828        56.4862 
 446   0.0000       2.077631        56.5352 
 447   0.0000       2.088437        56.8293 
 448   0.0000       2.099899        57.1412 
 449   0.0000       2.103990        57.2525 
 450   0.0000       2.115595        57.5683 
 451   0.0000       2.118228        57.6399 
 452   0.0000       2.127210        57.8843 
 453   0.0000       2.136740        58.1436 
 454   0.0000       2.144336        58.3504 
 455   0.0000       2.150907        58.5292 
 456   0.0000       2.163183        58.8632 
 457   0.0000       2.173570        59.1459 
 458   0.0000       2.178239        59.2729 
 459   0.0000       2.185558        59.4720 
 460   0.0000       2.194227        59.7079 
 461   0.0000       2.195550        59.7440 
 462   0.0000       2.209742        60.1301 
 463   0.0000       2.221596        60.4527 
 464   0.0000       2.236966        60.8709 
 465   0.0000       2.246057        61.1183 
 466   0.0000       2.249031        61.1993 
 467   0.0000       2.267783        61.7095 
 468   0.0000       2.274984        61.9054 
 469   0.0000       2.291756        62.3619 
 470   0.0000       2.293654        62.4135 
 471   0.0000       2.303086        62.6702 
 472   0.0000       2.310919        62.8833 
 473   0.0000       2.320039        63.1315 
 474   0.0000       2.322242        63.1914 
 475   0.0000       2.335221        63.5446 
 476   0.0000       2.338049        63.6216 
 477   0.0000       2.347494        63.8786 
 478   0.0000       2.356423        64.1215 
 479   0.0000       2.371011        64.5185 
 480   0.0000       2.375992        64.6540 
 481   0.0000       2.385159        64.9035 
 482   0.0000       2.396937        65.2240 
 483   0.0000       2.406217        65.4765 
 484   0.0000       2.414651        65.7060 
 485   0.0000       2.418375        65.8073 
 486   0.0000       2.425910        66.0124 
 487   0.0000       2.426459        66.0273 
 488   0.0000       2.439940        66.3941 
 489   0.0000       2.446332        66.5681 
 490   0.0000       2.458685        66.9042 
 491   0.0000       2.463331        67.0307 
 492   0.0000       2.478111        67.4328 
 493   0.0000       2.487276        67.6822 
 494   0.0000       2.500071        68.0304 
 495   0.0000       2.513760        68.4029 
 496   0.0000       2.518931        68.5436 
 497   0.0000       2.528984        68.8171 
 498   0.0000       2.535401        68.9918 
 499   0.0000       2.544726        69.2455 
 500   0.0000       2.558868        69.6303 
 501   0.0000       2.568823        69.9012 
 502   0.0000       2.576365        70.1065 
 503   0.0000       2.584827        70.3367 
 504   0.0000       2.596350        70.6503 
 505   0.0000       2.607445        70.9522 
 506   0.0000       2.618737        71.2595 
 507   0.0000       2.627446        71.4964 
 508   0.0000       2.627967        71.5106 
 509   0.0000       2.642029        71.8933 
 510   0.0000       2.645544        71.9889 
 511   0.0000       2.664056        72.4927 
 512   0.0000       2.669042        72.6283 
 513   0.0000       2.673111        72.7390 
 514   0.0000       2.690739        73.2187 
 515   0.0000       2.707645        73.6788 
 516   0.0000       2.712328        73.8062 
 517   0.0000       2.724555        74.1389 
 518   0.0000       2.737301        74.4858 
 519   0.0000       2.744740        74.6882 
 520   0.0000       2.755204        74.9729 
 521   0.0000       2.767951        75.3198 
 522   0.0000       2.774956        75.5104 
 523   0.0000       2.794839        76.0514 
 524   0.0000       2.804945        76.3264 
 525   0.0000       2.819831        76.7315 
 526   0.0000       2.826981        76.9261 
 527   0.0000       2.833895        77.1142 
 528   0.0000       2.840027        77.2811 
 529   0.0000       2.856196        77.7210 
 530   0.0000       2.860030        77.8254 
 531   0.0000       2.881494        78.4094 
 532   0.0000       2.888129        78.5900 
 533   0.0000       2.900698        78.9320 
 534   0.0000       2.909362        79.1678 
 535   0.0000       2.914572        79.3095 
 536   0.0000       2.933977        79.8376 
 537   0.0000       2.939480        79.9873 
 538   0.0000       2.965667        80.6999 
 539   0.0000       2.984072        81.2007 
 540   0.0000       2.990063        81.3638 
 541   0.0000       2.993006        81.4438 
 542   0.0000       3.010465        81.9189 
 543   0.0000       3.020021        82.1790 
 544   0.0000       3.050144        82.9986 
 545   0.0000       3.051727        83.0417 
 546   0.0000       3.066555        83.4452 
 547   0.0000       3.088975        84.0553 
 548   0.0000       3.101608        84.3990 
 549   0.0000       3.120526        84.9138 
 550   0.0000       3.125280        85.0432 
 551   0.0000       3.140792        85.4653 
 552   0.0000       3.148769        85.6824 
 553   0.0000       3.164995        86.1239 
 554   0.0000       3.173397        86.3525 
 555   0.0000       3.193396        86.8967 
 556   0.0000       3.205250        87.2193 
 557   0.0000       3.211575        87.3914 
 558   0.0000       3.231626        87.9370 
 559   0.0000       3.245790        88.3224 
 560   0.0000       3.260845        88.7321 
 561   0.0000       3.270695        89.0001 
 562   0.0000       3.279585        89.2420 
 563   0.0000       3.290802        89.5473 
 564   0.0000       3.301010        89.8251 
 565   0.0000       3.307832        90.0107 
 566   0.0000       3.319131        90.3181 
 567   0.0000       3.335538        90.7646 
 568   0.0000       3.340395        90.8968 
 569   0.0000       3.346362        91.0591 
 570   0.0000       3.353590        91.2558 
 571   0.0000       3.364215        91.5449 
 572   0.0000       3.377506        91.9066 
 573   0.0000       3.393803        92.3501 
 574   0.0000       3.397392        92.4477 
 575   0.0000       3.407567        92.7246 
 576   0.0000       3.421584        93.1060 
 577   0.0000       3.428719        93.3002 
 578   0.0000       3.434906        93.4686 
 579   0.0000       3.444669        93.7342 
 580   0.0000       3.460929        94.1767 
 581   0.0000       3.462453        94.2181 
 582   0.0000       3.480018        94.6961 
 583   0.0000       3.487251        94.8929 
 584   0.0000       3.511182        95.5441 
 585   0.0000       3.519896        95.7812 
 586   0.0000       3.526010        95.9476 
 587   0.0000       3.530838        96.0790 
 588   0.0000       3.542130        96.3863 
 589   0.0000       3.554976        96.7358 
 590   0.0000       3.556990        96.7906 
 591   0.0000       3.563007        96.9543 
 592   0.0000       3.569954        97.1434 
 593   0.0000       3.578358        97.3721 
 594   0.0000       3.587987        97.6341 
 595   0.0000       3.616963        98.4226 
 596   0.0000       3.623458        98.5993 
 597   0.0000       3.632771        98.8527 
 598   0.0000       3.644628        99.1754 
 599   0.0000       3.658767        99.5601 
 600   0.0000       3.677759       100.0769 
 601   0.0000       3.678075       100.0855 
 602   0.0000       3.691283       100.4449 
 603   0.0000       3.702991       100.7635 
 604   0.0000       3.704660       100.8089 
 605   0.0000       3.724812       101.3573 
 606   0.0000       3.728598       101.4603 
 607   0.0000       3.739106       101.7462 
 608   0.0000       3.747481       101.9742 
 609   0.0000       3.749511       102.0294 
 610   0.0000       3.765425       102.4624 
 611   0.0000       3.783587       102.9566 
 612   0.0000       3.786823       103.0447 
 613   0.0000       3.797099       103.3243 
 614   0.0000       3.806590       103.5826 
 615   0.0000       3.817302       103.8741 
 616   0.0000       3.829539       104.2070 
 617   0.0000       3.834708       104.3477 
 618   0.0000       3.844723       104.6202 
 619   0.0000       3.854800       104.8944 
 620   0.0000       3.863266       105.1248 
 621   0.0000       3.875333       105.4532 
 622   0.0000       3.886450       105.7557 
 623   0.0000       3.894857       105.9845 
 624   0.0000       3.903820       106.2284 
 625   0.0000       3.905607       106.2770 
 626   0.0000       3.916017       106.5602 
 627   0.0000       3.917351       106.5966 
 628   0.0000       3.934205       107.0552 
 629   0.0000       3.949581       107.4736 
 630   0.0000       3.961289       107.7922 
 631   0.0000       3.968791       107.9963 
 632   0.0000       3.993126       108.6585 
 633   0.0000       4.001328       108.8817 
 634   0.0000       4.009164       109.0949 
 635   0.0000       4.028127       109.6109 
 636   0.0000       4.032826       109.7388 
 637   0.0000       4.040772       109.9550 
 638   0.0000       4.057932       110.4220 
 639   0.0000       4.078523       110.9822 
 640   0.0000       4.081186       111.0547 
 641   0.0000       4.087629       111.2300 
 642   0.0000       4.092591       111.3651 
 643   0.0000       4.106534       111.7445 
 644   0.0000       4.119055       112.0852 
 645   0.0000       4.124292       112.2277 
 646   0.0000       4.130362       112.3929 
 647   0.0000       4.141657       112.7002 
 648   0.0000       4.149780       112.9213 
 649   0.0000       4.155146       113.0673 
 650   0.0000       4.177841       113.6848 
 651   0.0000       4.186014       113.9072 
 652   0.0000       4.204695       114.4156 
 653   0.0000       4.216798       114.7449 
 654   0.0000       4.223021       114.9142 
 655   0.0000       4.224298       114.9490 
 656   0.0000       4.229333       115.0860 
 657   0.0000       4.237957       115.3207 
 658   0.0000       4.252145       115.7068 
 659   0.0000       4.258232       115.8724 
 660   0.0000       4.267027       116.1117 
 661   0.0000       4.268469       116.1510 
 662   0.0000       4.284056       116.5751 
 663   0.0000       4.292681       116.8098 
 664   0.0000       4.294692       116.8645 
 665   0.0000       4.300443       117.0210 
 666   0.0000       4.313503       117.3764 
 667   0.0000       4.323176       117.6396 
 668   0.0000       4.347504       118.3016 
 669   0.0000       4.362658       118.7139 
 670   0.0000       4.371274       118.9484 
 671   0.0000       4.384339       119.3039 
 672   0.0000       4.396336       119.6304 
 673   0.0000       4.419201       120.2526 
 674   0.0000       4.448805       121.0581 
 675   0.0000       4.451316       121.1265 
 676   0.0000       4.456863       121.2774 
 677   0.0000       4.472497       121.7028 
 678   0.0000       4.481561       121.9495 
 679   0.0000       4.490644       122.1966 
 680   0.0000       4.505786       122.6087 
 681   0.0000       4.521756       123.0432 
 682   0.0000       4.542436       123.6060 
 683   0.0000       4.550672       123.8301 
 684   0.0000       4.562232       124.1446 
 685   0.0000       4.571606       124.3997 
 686   0.0000       4.574896       124.4893 
 687   0.0000       4.579098       124.6036 
 688   0.0000       4.596181       125.0684 
 689   0.0000       4.604573       125.2968 
 690   0.0000       4.612583       125.5148 
 691   0.0000       4.621797       125.7655 
 692   0.0000       4.632486       126.0563 
 693   0.0000       4.648121       126.4818 
 694   0.0000       4.659905       126.8024 
 695   0.0000       4.674510       127.1999 
 696   0.0000       4.695437       127.7693 
 697   0.0000       4.706451       128.0690 
 698   0.0000       4.722717       128.5117 
 699   0.0000       4.731285       128.7448 
 700   0.0000       4.747120       129.1757 
 701   0.0000       4.759648       129.5166 
 702   0.0000       4.773450       129.8922 
 703   0.0000       4.780799       130.0922 
 704   0.0000       4.784743       130.1995 
 705   0.0000       4.799328       130.5963 
 706   0.0000       4.812590       130.9572 
 707   0.0000       4.831646       131.4758 
 708   0.0000       4.837144       131.6254 
 709   0.0000       4.853095       132.0594 
 710   0.0000       4.859192       132.2253 
 711   0.0000       4.884393       132.9111 
 712   0.0000       4.890652       133.0814 
 713   0.0000       4.904681       133.4631 
 714   0.0000       4.911643       133.6526 
 715   0.0000       4.931030       134.1802 
 716   0.0000       4.967416       135.1703 
 717   0.0000       4.973525       135.3365 
 718   0.0000       4.987840       135.7260 
 719   0.0000       4.994740       135.9138 
 720   0.0000       4.995610       135.9375 
 721   0.0000       5.012928       136.4087 
 722   0.0000       5.018829       136.5693 
 723   0.0000       5.022286       136.6634 
 724   0.0000       5.030771       136.8942 
 725   0.0000       5.046520       137.3228 
 726   0.0000       5.061573       137.7324 
 727   0.0000       5.064910       137.8232 
 728   0.0000       5.088644       138.4690 
 729   0.0000       5.096289       138.6771 
 730   0.0000       5.122025       139.3774 
 731   0.0000       5.142900       139.9454 
 732   0.0000       5.160306       140.4191 
 733   0.0000       5.171475       140.7230 
 734   0.0000       5.179394       140.9385 
 735   0.0000       5.189340       141.2091 
 736   0.0000       5.203967       141.6072 
 737   0.0000       5.221999       142.0978 
 738   0.0000       5.233229       142.4034 
 739   0.0000       5.245748       142.7441 
 740   0.0000       5.258071       143.0794 
 741   0.0000       5.270288       143.4118 
 742   0.0000       5.303823       144.3244 
 743   0.0000       5.305774       144.3774 
 744   0.0000       5.329897       145.0339 
 745   0.0000       5.371893       146.1766 
 746   0.0000       5.424553       147.6096 
 747   0.0000       5.432084       147.8145 
 748   0.0000       5.442048       148.0857 
 749   0.0000       5.470168       148.8508 
 750   0.0000       5.474246       148.9618 
 751   0.0000       5.534415       150.5991 
 752   0.0000       5.548724       150.9885 
 753   0.0000       5.569507       151.5540 
 754   0.0000       5.574937       151.7017 
 755   0.0000       5.595443       152.2597 
 756   0.0000       5.607309       152.5826 
 757   0.0000       5.656498       153.9211 
 758   0.0000       5.724950       155.7838 
 759   0.0000       5.747279       156.3914 
 760   0.0000       5.751078       156.4948 
 761   0.0000       5.794821       157.6851 
 762   0.0000       5.828848       158.6110 
 763   0.0000       5.846536       159.0923 
 764   0.0000       5.880348       160.0124 
 765   0.0000       5.902061       160.6033 
 766   0.0000       5.912162       160.8781 
 767   0.0000       5.925096       161.2301 
 768   0.0000       5.949654       161.8983 
 769   0.0000       5.971468       162.4919 
 770   0.0000       6.004116       163.3803 
 771   0.0000       6.017588       163.7469 
 772   0.0000       6.039546       164.3444 
 773   0.0000       6.060646       164.9186 
 774   0.0000       6.079763       165.4388 
 775   0.0000       6.096192       165.8858 
 776   0.0000       6.130919       166.8308 
 777   0.0000       6.184201       168.2807 
 778   0.0000       6.207921       168.9261 
 779   0.0000       6.273605       170.7135 
 780   0.0000       6.302249       171.4929 
 781   0.0000       6.420640       174.7145 
 782   0.0000       6.466884       175.9729 
 783   0.0000       6.494345       176.7201 
 784   0.0000       6.526722       177.6011 
 785   0.0000       6.550391       178.2452 
 786   0.0000       6.571099       178.8087 
 787   0.0000       6.590275       179.3305 
 788   0.0000       6.601938       179.6479 
 789   0.0000       6.613692       179.9677 
 790   0.0000       6.621240       180.1731 
 791   0.0000       6.628104       180.3599 
 792   0.0000       6.649811       180.9506 
 793   0.0000       6.681300       181.8074 
 794   0.0000       6.702972       182.3971 
 795   0.0000       6.749175       183.6544 
 796   0.0000       6.769385       184.2043 
 797   0.0000       6.775062       184.3588 
 798   0.0000       6.793064       184.8487 
 799   0.0000       6.801379       185.0749 
 800   0.0000       6.833035       185.9363 
 801   0.0000       6.839353       186.1083 
 802   0.0000       6.857727       186.6082 
 803   0.0000       6.870451       186.9545 
 804   0.0000       6.880243       187.2209 
[...]
      f-3     :     0.026355
  7 H s       :     0.666848  s :     0.666848
      pz      :     0.089005  p :     0.294528
      px      :     0.121413
      py      :     0.084109
      dz2     :     0.045890  d :     0.210681
      dxz     :     0.051895
      dyz     :     0.019504
      dx2y2   :     0.048143
      dxy     :     0.045249
  8 C s       :     2.483112  s :     2.483112
      pz      :     0.853760  p :     2.273471
      px      :     0.829085
      py      :     0.590626
      dz2     :     0.193110  d :     0.723838
      dxz     :     0.249318
      dyz     :     0.121700
      dx2y2   :     0.090025
      dxy     :     0.069685
      f0      :     0.056653  f :     0.353853
      f+1     :     0.124629
      f-1     :     0.049834
      f+2     :     0.032417
      f-2     :     0.033441
      f+3     :     0.030773
      f-3     :     0.026106
  9 H s       :     0.648858  s :     0.648858
      pz      :     0.117861  p :     0.321531
      px      :     0.123551
      py      :     0.080119
      dz2     :     0.067202  d :     0.240671
      dxz     :     0.055229
      dyz     :     0.026057
      dx2y2   :     0.046220
      dxy     :     0.045962
 10 S s       :     4.479109  s :     4.479109
      pz      :     2.669757  p :     8.044453
      px      :     2.707750
      py      :     2.666945
      dz2     :     0.444613  d :     2.151774
      dxz     :     0.369560
      dyz     :     0.342649
      dx2y2   :     0.495593
      dxy     :     0.499359
      f0      :     0.127935  f :     1.178649
      f+1     :     0.159766
      f-1     :     0.145949
      f+2     :     0.141030
      f-2     :     0.141011
      f+3     :     0.182019
      f-3     :     0.280938
 11 O s       :     3.302264  s :     3.302264
      pz      :     1.469276  p :     4.310839
      px      :     1.425563
      py      :     1.416001
      dz2     :     0.032864  d :     0.225204
      dxz     :     0.026565
      dyz     :     0.043448
      dx2y2   :     0.053838
      dxy     :     0.068489
      f0      :     0.006368  f :     0.072792
      f+1     :     0.006046
      f-1     :     0.010207
      f+2     :     0.003853
      f-2     :     0.012492
      f+3     :     0.017546
      f-3     :     0.016280
 12 O s       :     3.305380  s :     3.305380
      pz      :     1.459765  p :     4.308909
      px      :     1.390060
      py      :     1.459084
      dz2     :     0.037517  d :     0.226237
      dxz     :     0.060710
      dyz     :     0.008177
      dx2y2   :     0.066208
      dxy     :     0.053625
      f0      :     0.006669  f :     0.072764
      f+1     :     0.015134
      f-1     :     0.001446
      f+2     :     0.013329
      f-2     :     0.003201
      f+3     :     0.017293
      f-3     :     0.015693
 13 N s       :     2.714539  s :     2.714539
      pz      :     1.131310  p :     3.105047
      px      :     0.998697
      py      :     0.975039
      dz2     :     0.055915  d :     0.370104
      dxz     :     0.039209
      dyz     :     0.064032
      dx2y2   :     0.099563
      dxy     :     0.111384
      f0      :     0.009515  f :     0.110645
      f+1     :     0.007383
      f-1     :     0.019223
      f+2     :     0.017861
      f-2     :     0.016973
      f+3     :     0.017965
      f-3     :     0.021726
 14 H s       :     0.590301  s :     0.590301
      pz      :     0.162897  p :     0.476826
      px      :     0.203451
      py      :     0.110477
      dz2     :     0.048644  d :     0.374471
      dxz     :     0.118806
      dyz     :     0.025320
      dx2y2   :     0.070652
      dxy     :     0.111048
 15 H s       :     0.604224  s :     0.604224
      pz      :     0.140288  p :     0.435349
      px      :     0.133909
      py      :     0.161152
      dz2     :     0.030167  d :     0.309632
      dxz     :     0.037150
      dyz     :     0.072336
      dx2y2   :     0.100188
      dxy     :     0.069792
 16 O s       :     3.176732  s :     3.176732
      pz      :     1.343951  p :     4.031323
      px      :     1.381879
      py      :     1.305493
      dz2     :     0.035941  d :     0.212681
      dxz     :     0.026322
      dyz     :     0.046007
      dx2y2   :     0.043594
      dxy     :     0.060818
      f0      :     0.006078  f :     0.075948
      f+1     :     0.009045
      f-1     :     0.010684
      f+2     :     0.008126
      f-2     :     0.013746
      f+3     :     0.011605
      f-3     :     0.016664
 17 O s       :     2.971068  s :     2.971068
      pz      :     1.247254  p :     3.875526
      px      :     1.281447
      py      :     1.346825
      dz2     :     0.094420  d :     0.460282
      dxz     :     0.119981
      dyz     :     0.102354
      dx2y2   :     0.080474
      dxy     :     0.063053
      f0      :     0.012986  f :     0.124079
      f+1     :     0.026651
      f-1     :     0.016304
      f+2     :     0.023310
      f-2     :     0.020610
      f+3     :     0.013487
      f-3     :     0.010730
 18 C s       :     2.462014  s :     2.462014
      pz      :     0.736622  p :     2.208907
      px      :     0.678360
      py      :     0.793926
      dz2     :     0.092849  d :     0.654991
      dxz     :     0.157582
      dyz     :     0.148251
      dx2y2   :     0.169015
      dxy     :     0.087294
      f0      :     0.032835  f :     0.312713
      f+1     :     0.063651
      f-1     :     0.027349
      f+2     :     0.052417
      f-2     :     0.050122
      f+3     :     0.044023
      f-3     :     0.042316
 19 H s       :     0.666689  s :     0.666689
      pz      :     0.138829  p :     0.293523
      px      :     0.074732
      py      :     0.079961
      dz2     :     0.061437  d :     0.210443
      dxz     :     0.079914
      dyz     :     0.058743
      dx2y2   :     0.005617
      dxy     :     0.004733
 20 H s       :     0.657884  s :     0.657884
      pz      :     0.114476  p :     0.297038
      px      :     0.070343
      py      :     0.112220
      dz2     :     0.055692  d :     0.223136
      dxz     :     0.059454
      dyz     :     0.044094
      dx2y2   :     0.041579
      dxy     :     0.022317
 21 H s       :     0.641657  s :     0.641657
      pz      :     0.086938  p :     0.305741
      px      :     0.075467
      py      :     0.143336
      dz2     :     0.025231  d :     0.223526
      dxz     :     0.026417
      dyz     :     0.065050
      dx2y2   :     0.052621
      dxy     :     0.054207
 22 H s       :     0.647973  s :     0.647973
      pz      :     0.108910  p :     0.307644
      px      :     0.113789
      py      :     0.084945
      dz2     :     0.036393  d :     0.223811
      dxz     :     0.057613
      dyz     :     0.043369
      dx2y2   :     0.035636
      dxy     :     0.050801


                      *****************************
                      * MAYER POPULATION ANALYSIS *
                      *****************************

  NA   - Mulliken gross atomic population
  ZA   - Total nuclear charge
  QA   - Mulliken gross atomic charge
  VA   - Mayer's total valence
  BVA  - Mayer's bonded valence
  FA   - Mayer's free valence

  ATOM       NA         ZA         QA         VA         BVA        FA
  0 C      5.7023     6.0000     0.2977     3.5897     3.5897    -0.0000
  1 C      4.6585     6.0000     1.3415     1.5820     1.5820    -0.0000
  2 C      5.4215     6.0000     0.5785     2.6644     2.6644     0.0000
  3 C      6.9515     6.0000    -0.9515     2.8169     2.8169    -0.0000
  4 H      0.9149     1.0000     0.0851     1.4142     1.4142    -0.0000
  5 C      6.4689     6.0000    -0.4689     2.8860     2.8860    -0.0000
  6 C      6.3172     6.0000    -0.3172     2.6539     2.6539     0.0000
  7 H      0.5286     1.0000     0.4714     0.7618     0.7618     0.0000
  8 C      6.9487     6.0000    -0.9487     2.6706     2.6706     0.0000
  9 H      0.5373     1.0000     0.4627     0.6949     0.6949     0.0000
 10 S     13.8554    16.0000     2.1446     4.3464     4.3464    -0.0000
 11 O      8.9913     8.0000    -0.9913     1.4044     1.4044     0.0000
 12 O      8.9996     8.0000    -0.9996     1.2121     1.2121    -0.0000
 13 N      7.6623     7.0000    -0.6623     2.8923     2.8923     0.0000
 14 H      0.7122     1.0000     0.2878     0.8594     0.8594    -0.0000
 15 H      0.8944     1.0000     0.1056     1.1190     1.1190     0.0000
 16 O      8.8749     8.0000    -0.8749     1.3183     1.3183     0.0000
 17 O      8.3286     8.0000    -0.3286     1.9667     1.9667    -0.0000
 18 C      6.9519     6.0000    -0.9519     3.6392     3.6392    -0.0000
 19 H      0.3703     1.0000     0.6297     0.3925     0.3925    -0.0000
 20 H      0.6712     1.0000     0.3288     1.0081     1.0081    -0.0000
 21 H      0.6132     1.0000     0.3868     0.9717     0.9717    -0.0000
 22 H      0.6252     1.0000     0.3748     0.9202     0.9202    -0.0000

  Mayer bond orders larger than 0.100000
B(  0-C ,  1-C ) :   1.1766 B(  0-C ,  2-C ) :   0.1798 B(  0-C ,  3-C ) :  -0.3231 
B(  0-C ,  6-C ) :  -0.1218 B(  0-C ,  8-C ) :   0.7854 B(  0-C ,  9-H ) :   0.1091 
B(  0-C , 10-S ) :   1.0677 B(  0-C , 11-O ) :   0.1968 B(  0-C , 12-O ) :   0.2213 
B(  0-C , 13-N ) :   0.1306 B(  0-C , 17-O ) :   0.1099 B(  1-C ,  3-C ) :   0.6285 
B(  1-C ,  4-H ) :  -0.1799 B(  1-C ,  5-C ) :   0.1828 B(  1-C ,  8-C ) :   0.1059 
B(  1-C , 16-O ) :  -0.1066 B(  1-C , 17-O ) :  -0.3526 B(  2-C ,  3-C ) :   0.1396 
B(  2-C , 16-O ) :   1.1629 B(  2-C , 17-O ) :   1.2266 B(  3-C ,  4-H ) :   1.4632 
B(  3-C ,  5-C ) :   1.1481 B(  3-C ,  6-C ) :  -0.2357 B(  4-H , 16-O ) :   0.1507 
B(  5-C ,  6-C ) :   1.0989 B(  5-C ,  7-H ) :  -0.1253 B(  5-C ,  8-C ) :   0.2099 
B(  5-C , 19-H ) :   0.5162 B(  6-C ,  7-H ) :   0.8045 B(  6-C ,  8-C ) :   0.9513 
B(  8-C ,  9-H ) :   0.6942 B( 10-S , 11-O ) :   1.2895 B( 10-S , 12-O ) :   1.0236 
B( 10-S , 13-N ) :   0.9312 B( 13-N , 14-H ) :   0.8063 B( 13-N , 15-H ) :   1.0083 
B( 17-O , 18-C ) :   0.9691 B( 18-C , 20-H ) :   0.9110 B( 18-C , 21-H ) :   0.8474 
B( 18-C , 22-H ) :   0.8578 

-------
TIMINGS
-------

Total SCF time: 0 days 0 hours 3 min 39 sec 

Total time                  ....     219.861 sec
Sum of individual times     ....     217.679 sec  ( 99.0%)

Fock matrix formation       ....     209.828 sec  ( 95.4%)
  Split-RI-J                ....      12.539 sec  (  6.0% of F)
  Chain of spheres X        ....     171.572 sec  ( 81.8% of F)
  XC integration            ....      24.890 sec  ( 11.9% of F)
    Basis function eval.    ....       3.985 sec  ( 16.0% of XC)
    Density eval.           ....       9.785 sec  ( 39.3% of XC)
    XC-Functional eval.     ....       0.202 sec  (  0.8% of XC)
    XC-Potential eval.      ....       9.363 sec  ( 37.6% of XC)
Diagonalization             ....       1.420 sec  (  0.6%)
Density matrix formation    ....       0.139 sec  (  0.1%)
Population analysis         ....       0.143 sec  (  0.1%)
Initial guess               ....       1.297 sec  (  0.6%)
Orbital Transformation      ....       0.000 sec  (  0.0%)
Orbital Orthonormalization  ....       0.000 sec  (  0.0%)
DIIS solution               ....       0.682 sec  (  0.3%)
SOSCF solution              ....       1.182 sec  (  0.5%)
Grid generation             ....       2.988 sec  (  1.4%)

Maximum memory used throughout the entire SCF-calculation: 195.2 MB


           ************************************************************
           *        Program running with 8 parallel MPI-processes     *
           *              working on a common directory               *
           ************************************************************

------------------------------------------------------------------------------
                                ORCA  MP2 
------------------------------------------------------------------------------

Freezing NCore=36 chemical core electrons

   <<< Use J-auxbasis for calculation of Separable RI-J derivative contributions (Dim=787) >>> 


-------------
RI-MP2 ENERGY
-------------
Dimension of the basis                    ...  855
Memory devoted to MP2                     ... 5000 MB   
Data format for buffers                   ... DOUBLE
Compression type for matrix containers    ... UNCOMPRESSED
Scaling for aa/bb pairs                   ...   2.500e-01
Scaling for ab pairs                      ...   5.300e-01
Overall scaling of the MP2 energy         ...   1.000e+00
Calculating two index integrals           ... done (    0.044 sec)
Cholesky decomposition of V**-1           ... done (    0.303 sec)

-----------------
RI-TRANSFORMATION (AUX index driven)
-----------------

Dimension of the orbital-basis         ... 855
Dimension of the aux-basis             ... 1939
Transformation of internal/external MOs...   18-  55 to   56- 854
Number Format for Storage              ... Double (8 Byte)
Integral mode                          ... Direct

First Phase: integral generation and transformation of MO indices
  Aux angular momentum 0               ... done (    0.446 sec)
  Aux angular momentum 1               ... done (    0.781 sec)
  Aux angular momentum 2               ... done (    1.153 sec)
  Aux angular momentum 3               ... done (    1.111 sec)
  Aux angular momentum 4               ... done (    0.577 sec)
Closing buffer VIA ( 0.44 GB; CompressionRatio= 1.00)
  Phase 1 completed in     4.368 sec
Second Phase: sorting and transformation of aux index

IA-Transformation
Memory available                       ... 4910 MB 
Max. # MO pairs treated in a batch     ... 5    
# of internal orbitals                 ... 38
# batches for internal orbitals        ... 1
Closing buffer IAV ( 0.44 GB; CompressionRatio= 1.00)
(ia|v) transformation done in     0.693 sec

  Phase 2 completed in     0.805 sec
RI-Integral transformation completed in     5.177 sec
Opening buffers                              ... done

Starting loop over batches of integrals:

Operator 0  - window                       ... ( 18- 55)x( 56-854)
Operator 0  - Memory available             ...  5000 MB
Operator 0  - Memory needed per MO         ...  11.8 MB
Operator 0  - Number of orbitals per batch ... 5
Operator 0  - Number of batches            ... 1

OPERATOR  0   PASS   0:  MOs    18 ...   22 +   23 ...   27 +   28 ...   32 +   33 ...   37
                            +   38 ...   42 +   43 ...   47 +   48 ...   52 +   53 ...   55
  Reading integrals       ... ok
  Internal MO  20
Time spent in pair loops =     0.792 sec
Deleting buffer (Ka|jb)[aa] ...done

-----------------------------------------------
 RI-MP2 CORRELATION ENERGY:     -1.368399116 Eh
-----------------------------------------------


-------
TIMINGS
-------

Total time                :   13.654 sec
Integral trafo            :    5.193 sec ( 38.0%)
I/O of integrals          :    0.030 sec (  0.2%)
K(i,j) Operators          :    0.613 sec (  4.5%)
T(i,j) pair energies      :    0.098 sec (  0.7%)
V-calculation             :    0.044 sec (  0.3%)
V**(-1/2)                 :    0.303 sec (  2.2%)
Gamma(ia|P)               :    0.000 sec (  0.0%)
Gamma-Trafo               :    0.000 sec (  0.0%)
D(virtual)                :    0.000 sec (  0.0%)
D(internal)               :    0.000 sec (  0.0%)
W(virtual)                :    0.000 sec (  0.0%)
W(internal)               :    0.000 sec (  0.0%)
L(virtual)                :    0.000 sec (  0.0%)
L(internal)               :    0.000 sec (  0.0%)
G(D)                      :    0.000 sec (  0.0%)
G(Z)                      :    0.000 sec (  0.0%)
Z-Vector Solution         :    0.000 sec (  0.0%)
3-Index Derivative        :    0.000 sec (  0.0%)
2-Index Derivative        :    0.000 sec (  0.0%)
Separable Gradient (RIJ)  :    0.000 sec (  0.0%)
Separable Gradient (COSX) :    0.000 sec (  0.0%)


---------------------------------------
MP2 TOTAL ENERGY:    -1062.940916399 Eh
---------------------------------------

Maximum memory used throughout the entire MP2-calculation: 216.9 MB


-------------------------------------------------------------------------------
                          DFT DISPERSION CORRECTION                            
                                                                               
                              DFTD3 V3.1  Rev 1                                
                          USING Becke-Johnson damping                          
-------------------------------------------------------------------------------
The DSD-PBEP86 functional is recognized
Active option DFTDOPT                   ...         4   

molecular C6(AA) [au] = 7033.413445 


            DFT-D V3
 parameters
 s6 scaling factor         :     0.4180 
 a1 scaling factor         :     0.0000 
 s8 scaling factor         :     0.0000 
 a2 scaling factor         :     5.6500 
 ad hoc parameters k1-k3   :    16.0000     1.3333    -4.0000 

 Edisp/kcal,au: -10.986154867236  -0.017507550323 
 E6   /kcal   : -10.986154867 
 E8   /kcal   :  -0.000000000 
 % E8         :   0.000000000 

-------------------------   ----------------
Dispersion correction           -0.017507550
-------------------------   ----------------


-------------------------   --------------------
FINAL SINGLE POINT ENERGY     -1062.958423949492
-------------------------   --------------------


                            ***************************************
                            *     ORCA property calculations      *
                            ***************************************


  WARNING: The energy has been calculated at the MP2 level but the densities
           used in the property calculations are still SCF densities
           MP2 response densities have not been calculated 
           use %mp2 Density relaxed end
           or  %mp2 Density unrelaxed end

                                    ---------------------
                                    Active property flags
                                    ---------------------
   (+) Dipole Moment


------------------------------------------------------------------------------
                       ORCA ELECTRIC PROPERTIES CALCULATION
------------------------------------------------------------------------------

Dipole Moment Calculation                       ... on
Quadrupole Moment Calculation                   ... off
Polarizability Calculation                      ... off
GBWName                                         ... HA.14.avtz.gbw
Electron density                                ... HA.14.avtz.scfp
The origin for moment calculation is the CENTER OF MASS  = (-3.801363,  1.017106 -0.771849)

-------------
DIPOLE MOMENT
-------------
                                X             Y             Z
Electronic contribution:      3.83101      -2.56937       0.98997
Nuclear contribution   :     -4.19864       4.55140      -2.13844
                        -----------------------------------------
Total Dipole Moment    :     -0.36763       1.98203      -1.14847
                        -----------------------------------------
Magnitude (a.u.)       :      2.32004
Magnitude (Debye)      :      5.89707



--------------------
Rotational spectrum 
--------------------
 
Rotational constants in cm-1:     0.025867     0.023157     0.013818 
Rotational constants in MHz :   775.469424   694.234900   414.258761 

 Dipole components along the rotational axes: 
x,y,z [a.u.] :    -0.887775    -0.881720     1.953714 
x,y,z [Debye]:    -2.256546    -2.241155     4.965946 

 

Timings for individual modules:

Sum of individual times         ...      239.838 sec (=   3.997 min)
GTO integral calculation        ...        3.310 sec (=   0.055 min)   1.4 %
SCF iterations                  ...      221.332 sec (=   3.689 min)  92.3 %
MP2 module                      ...       15.195 sec (=   0.253 min)   6.3 %
                             ****ORCA TERMINATED NORMALLY****
TOTAL RUN TIME: 0 days 0 hours 4 minutes 2 seconds 612 msec
