
                                 *****************
                                 * O   R   C   A *
                                 *****************

                                            #,                                       
                                            ###                                      
                                            ####                                     
                                            #####                                    
                                            ######                                   
                                           ########,                                 
                                     ,,################,,,,,                         
                               ,,#################################,,                 
                          ,,##########################################,,             
                       ,#########################################, ''#####,          
                    ,#############################################,,   '####,        
                  ,##################################################,,,,####,       
                ,###########''''           ''''###############################       
              ,#####''   ,,,,##########,,,,          '''####'''          '####       
            ,##' ,,,,###########################,,,                        '##       
           ' ,,###''''                  '''############,,,                           
         ,,##''                                '''############,,,,        ,,,,,,###''
      ,#''                                            '''#######################'''  
     '                                                          ''''####''''         
             ,#######,   #######,   ,#######,      ##                                
            ,#'     '#,  ##    ##  ,#'     '#,    #''#        ######   ,####,        
            ##       ##  ##   ,#'  ##            #'  '#       #        #'  '#        
            ##       ##  #######   ##           ,######,      #####,   #    #        
            '#,     ,#'  ##    ##  '#,     ,#' ,#      #,         ##   #,  ,#        
             '#######'   ##     ##  '#######'  #'      '#     #####' # '####'        



                  #######################################################
                  #                        -***-                        #
                  #          Department of theory and spectroscopy      #
                  #    Directorship and core code : Frank Neese         #
                  #        Max Planck Institute fuer Kohlenforschung    #
                  #                Kaiser Wilhelm Platz 1               #
                  #                 D-45470 Muelheim/Ruhr               #
                  #                      Germany                        #
                  #                                                     #
                  #                  All rights reserved                #
                  #                        -***-                        #
                  #######################################################


                         Program Version 5.0.3 -  RELEASE  -


 With contributions from (in alphabetic order):
   Daniel Aravena         : Magnetic Suceptibility
   Michael Atanasov       : Ab Initio Ligand Field Theory (pilot matlab implementation)
   Alexander A. Auer      : GIAO ZORA, VPT2 properties, NMR spectrum
   Ute Becker             : Parallelization
   Giovanni Bistoni       : ED, misc. LED, open-shell LED, HFLD
   Martin Brehm           : Molecular dynamics
   Dmytro Bykov           : SCF Hessian
   Vijay G. Chilkuri      : MRCI spin determinant printing, contributions to CSF-ICE
   Dipayan Datta          : RHF DLPNO-CCSD density
   Achintya Kumar Dutta   : EOM-CC, STEOM-CC
   Dmitry Ganyushin       : Spin-Orbit,Spin-Spin,Magnetic field MRCI
   Miquel Garcia          : C-PCM and meta-GGA Hessian, CC/C-PCM, Gaussian charge scheme
   Yang Guo               : DLPNO-NEVPT2, F12-NEVPT2, CIM, IAO-localization
   Andreas Hansen         : Spin unrestricted coupled pair/coupled cluster methods
   Benjamin Helmich-Paris : MC-RPA, TRAH-SCF, COSX integrals
   Lee Huntington         : MR-EOM, pCC
   Robert Izsak           : Overlap fitted RIJCOSX, COSX-SCS-MP3, EOM
   Marcus Kettner         : VPT2
   Christian Kollmar      : KDIIS, OOCD, Brueckner-CCSD(T), CCSD density, CASPT2, CASPT2-K
   Simone Kossmann        : Meta GGA functionals, TD-DFT gradient, OOMP2, MP2 Hessian
   Martin Krupicka        : Initial AUTO-CI
   Lucas Lang             : DCDCAS
   Marvin Lechner         : AUTO-CI (C++ implementation), FIC-MRCC
   Dagmar Lenk            : GEPOL surface, SMD
   Dimitrios Liakos       : Extrapolation schemes; Compound Job, initial MDCI parallelization
   Dimitrios Manganas     : Further ROCIS development; embedding schemes
   Dimitrios Pantazis     : SARC Basis sets
   Anastasios Papadopoulos: AUTO-CI, single reference methods and gradients
   Taras Petrenko         : DFT Hessian,TD-DFT gradient, ASA, ECA, R-Raman, ABS, FL, XAS/XES, NRVS
   Peter Pinski           : DLPNO-MP2, DLPNO-MP2 Gradient
   Christoph Reimann      : Effective Core Potentials
   Marius Retegan         : Local ZFS, SOC
   Christoph Riplinger    : Optimizer, TS searches, QM/MM, DLPNO-CCSD(T), (RO)-DLPNO pert. Triples
   Tobias Risthaus        : Range-separated hybrids, TD-DFT gradient, RPA, STAB
   Michael Roemelt        : Original ROCIS implementation
   Masaaki Saitow         : Open-shell DLPNO-CCSD energy and density
   Barbara Sandhoefer     : DKH picture change effects
   Avijit Sen             : IP-ROCIS
   Kantharuban Sivalingam : CASSCF convergence, NEVPT2, FIC-MRCI
   Bernardo de Souza      : ESD, SOC TD-DFT
   Georgi Stoychev        : AutoAux, RI-MP2 NMR, DLPNO-MP2 response
   Willem Van den Heuvel  : Paramagnetic NMR
   Boris Wezisla          : Elementary symmetry handling
   Frank Wennmohs         : Technical directorship


 We gratefully acknowledge several colleagues who have allowed us to
 interface, adapt or use parts of their codes:
   Stefan Grimme, W. Hujo, H. Kruse, P. Pracht,  : VdW corrections, initial TS optimization,
                  C. Bannwarth, S. Ehlert          DFT functionals, gCP, sTDA/sTD-DF
   Ed Valeev, F. Pavosevic, A. Kumar             : LibInt (2-el integral package), F12 methods
   Garnet Chan, S. Sharma, J. Yang, R. Olivares  : DMRG
   Ulf Ekstrom                                   : XCFun DFT Library
   Mihaly Kallay                                 : mrcc  (arbitrary order and MRCC methods)
   Jiri Pittner, Ondrej Demel                    : Mk-CCSD
   Frank Weinhold                                : gennbo (NPA and NBO analysis)
   Christopher J. Cramer and Donald G. Truhlar   : smd solvation model
   Lars Goerigk                                  : TD-DFT with DH, B97 family of functionals
   V. Asgeirsson, H. Jonsson                     : NEB implementation
   FAccTs GmbH                                   : IRC, NEB, NEB-TS, DLPNO-Multilevel, CI-OPT
                                                   MM, QMMM, 2- and 3-layer-ONIOM, Crystal-QMMM,
                                                   LR-CPCM, SF, NACMEs, symmetry and pop. for TD-DFT,
                                                   nearIR, NL-DFT gradient (VV10), updates on ESD,
                                                   ML-optimized integration grids
   S Lehtola, MJT Oliveira, MAL Marques          : LibXC Library
   Liviu Ungur et al                             : ANISO software


 Your calculation uses the libint2 library for the computation of 2-el integrals
 For citations please refer to: http://libint.valeyev.net

 Your ORCA version has been built with support for libXC version: 5.1.0
 For citations please refer to: https://tddft.org/programs/libxc/

 This ORCA versions uses:
   CBLAS   interface :  Fast vector & matrix operations
   LAPACKE interface :  Fast linear algebra routines
   SCALAPACK package :  Parallel linear algebra routines
   Shared memory     :  Shared parallel matrices
   BLAS/LAPACK       :  OpenBLAS 0.3.15  USE64BITINT DYNAMIC_ARCH NO_AFFINITY SkylakeX SINGLE_THREADED
        Core in use  :  SkylakeX
   Copyright (c) 2011-2014, The OpenBLAS Project


Your calculation utilizes the atom-pairwise dispersion correction
with the Becke-Johnson damping scheme (D3BJ)
Cite in your paper:
S.Grimme, S.Ehrlich, L.Goerigk, J Comput Chem, (2011), 32, 1456–1465 
S.Grimme, J.Antony, S.Ehrlich and H.Krieg, J.Chem.Phys., 132, (2010), 154104 
   

================================================================================

----- Orbital basis set information -----
Your calculation utilizes the basis: aug-cc-pVTZ 
    H, B-Ne : Obtained from the ccRepo (grant-hill.group.shef.ac.uk/ccrepo) Feb. 2017
              R. A. Kendall, T. H. Dunning, Jr., R. J. Harrison, J. Chem. Phys. 96, 6796 (1992)
         He : Obtained from the ccRepo (grant-hill.group.shef.ac.uk/ccrepo) Feb. 2017
              D. E. Woon, T. H. Dunning, Jr., J. Chem. Phys. 100, 2975 (1994)
  Li-Be, Na : Obtained from the ccRepo (grant-hill.group.shef.ac.uk/ccrepo) Feb. 2017
              B. P. Prascher, D. E. Woon, K. A. Peterson, T. H. Dunning, Jr., A. K. Wilson, Theor. Chem. Acc. 128, 69 (2011)
         Mg : Obtained from the Peterson Research Group Website (tyr0.chem.wsu.edu/~kipeters) Feb. 2017
              B. P. Prascher, D. E. Woon, K. A. Peterson, T. H. Dunning, Jr., A. K. Wilson, Theor. Chem. Acc. 128, 69 (2011)
      Al-Ar : Obtained from the ccRepo (grant-hill.group.shef.ac.uk/ccrepo) Feb. 2017
              D. E. Woon, T. H. Dunning, Jr., J. Chem. Phys. 98, 1358 (1993)
      Sc-Zn : Obtained from the ccRepo (grant-hill.group.shef.ac.uk/ccrepo) Feb. 2017
              N. B. Balabanov, K. A. Peterson, J. Chem. Phys. 123, 064107 (2005)
              N. B. Balabanov, K. A. Peterson, J. Chem. Phys. 125, 074110 (2006)
      Ga-Kr : Obtained from the ccRepo (grant-hill.group.shef.ac.uk/ccrepo) Feb. 2017
              A. K. Wilson, D. E. Woon, K. A. Peterson, T. H. Dunning, Jr., J. Chem. Phys. 110, 7667 (1999)
     Ag, Au : Obtained from the Peterson Research Group Website (tyr0.chem.wsu.edu/~kipeters) Feb. 2017
              K. A. Peterson, C. Puzzarini, Theor. Chem. Acc. 114, 283 (2005)

----- AuxJ basis set information -----
Your calculation utilizes the auxiliary basis: def2/J
   F. Weigend, Phys. Chem. Chem. Phys. 8, 1057 (2006).

----- AuxC basis set information -----
Your calculation utilizes the auxiliary basis: aug-cc-pVTZ/C 
  H-He, B-F, Al-Ar, Ga-Kr : Obtained from the EMSL Basis Set Exchange (bse.pnl.gov) Feb. 2017
                            F. Weigend, A. Kohn, C. Hattig, J. Chem. Phys. 116, 3175 (2002)
                   Be, Mg : Obtained from the TURBOMOLE 7.0 basis set library
                            C. Haettig, Phys. Chem. Chem. Phys. 7, 59 (2005)
                       Ne : Obtained from the EMSL Basis Set Exchange (bse.pnl.gov) Feb. 2017
                            C. Haettig, Phys. Chem. Chem. Phys. 7, 59 (2005)
                            F. Weigend, A. Kohn, C. Hattig, J. Chem. Phys. 116, 3175 (2002)
                    Sc-Zn : Obtained from the EMSL Basis Set Exchange (bse.pnl.gov) Feb. 2017
                            J. G. Hill, J. A. Platts, J. Chem. Phys. 128, 044104 (2008)

================================================================================
                                        WARNINGS
                       Please study these warnings very carefully!
================================================================================


WARNING: No MP2 level density has been requested!
         To caclulate MP2 level properties use
         %mp2 Density relaxed end
         or
         %mp2 Density unrelaxed end
         Otherwise for double-hybrid DFT only the energy is correct!

WARNING: There are different parametrizations of Gershom Martin's DSD-DFs
         for use with and without D3(BJ)!
         You are using the D3(BJ) parametrized version,
         consistent with the GMTKN55 benchmark (L. Goerigk et al., PCCP 2017, 19, 32184)

WARNING: The frozen-core approximation is turned on by default for 
         the MP2 part of double-hybrid DFT.

INFO   : the flag for use of the SHARK integral package has been found!

================================================================================
                                       INPUT FILE
================================================================================
NAME = HA.18.avtz.com
|  1> !PAL8
|  2> !RI-DSD-PBEP86 D3BJ aug-cc-pVTZ aug-cc-pVTZ/C TightSCF
|  3> %maxcore 5000
|  4> 
|  5> 
|  6> * xyz 0 1
|  7> C -0.727187419  0.9187725276 -1.4090454649
|  8> S -1.1311661348  1.3604528958  0.2555459064
|  9> O -0.6900116525  0.2313106549  1.0464987606
| 10> O -0.6865135558  2.7197151787  0.4715770659
| 11> N -2.7807476833  1.4001216895  0.3512181122
| 12> H -3.2237310879  0.5033727121  0.1708598257
| 13> H -3.1976920664  2.1758208978 -0.1563260014
| 14> O -1.0419895587  1.8075367715 -2.3850090166
| 15> C -0.6537278173  1.2579660627 -3.5526043734
| 16> C -0.1014743925  0.0350168469 -3.3254310426
| 17> C -0.1507898809 -0.2002289672 -1.914732476
| 18> S  0.5190186231 -1.0318590086 -4.5879681645
| 19> C  2.2795919087 -0.9254922787 -4.4281111439
| 20> O  0.1332256131 -0.4106465115 -5.8530728175
| 21> O  0.1151698017 -2.3883726492 -4.2342464736
| 22> C  2.9673107666  0.0694897682 -5.1148679656
| 23> C  4.344061551  0.1630965631 -4.957317524
| 24> C  5.0165736995 -0.735833328 -4.1238744356
| 25> C  4.3243592311 -1.7518807266 -3.4406682629
| 26> C  2.9466886104 -1.8287437063 -3.6003604545
| 27> O  6.3532798153 -0.6671896309 -3.9242254912
| 28> C  5.0876753418 -2.7372968513 -2.5929586553
| 29> N  5.796854856 -3.717512099 -3.4065650846
| 30> C  4.8778542544 -4.6283624936 -4.0679386585
| 31> C  6.7555018578 -4.4501434853 -2.597795724
| 32> H -0.8323645595  1.8243591838 -4.454202988
| 33> H  0.1843614389 -1.0663122782 -1.3617923093
| 34> H  2.4311027008  0.7484580922 -5.7711770421
| 35> H  4.9019937713  0.9326460764 -5.4855822635
| 36> H  2.3852356434 -2.6140076998 -3.0983574077
| 37> H  6.7337209017  0.0644274226 -4.4311466401
| 38> H  4.3888889927 -3.2295784677 -1.8874991939
| 39> H  5.8303177513 -2.1956615874 -1.9980902546
| 40> H  4.1995996095 -4.075500162 -4.7233548613
| 41> H  4.2708175472 -5.2075234039 -3.3444089507
| 42> H  5.4453739754 -5.3321863189 -4.6830015943
| 43> H  7.4748993572 -3.7537687618 -2.1572987798
| 44> H  7.3023586965 -5.1552355056 -3.2302040533
| 45> H  6.2714334921 -5.0207934224 -1.7816091019
| 46> *
| 47> 
| 48>                          ****END OF INPUT****
================================================================================

                       ****************************
                       * Single Point Calculation *
                       ****************************

---------------------------------
CARTESIAN COORDINATES (ANGSTROEM)
---------------------------------
  C     -0.727187    0.918773   -1.409045
  S     -1.131166    1.360453    0.255546
  O     -0.690012    0.231311    1.046499
  O     -0.686514    2.719715    0.471577
  N     -2.780748    1.400122    0.351218
  H     -3.223731    0.503373    0.170860
  H     -3.197692    2.175821   -0.156326
  O     -1.041990    1.807537   -2.385009
  C     -0.653728    1.257966   -3.552604
  C     -0.101474    0.035017   -3.325431
  C     -0.150790   -0.200229   -1.914732
  S      0.519019   -1.031859   -4.587968
  C      2.279592   -0.925492   -4.428111
  O      0.133226   -0.410647   -5.853073
  O      0.115170   -2.388373   -4.234246
  C      2.967311    0.069490   -5.114868
  C      4.344062    0.163097   -4.957318
  C      5.016574   -0.735833   -4.123874
  C      4.324359   -1.751881   -3.440668
  C      2.946689   -1.828744   -3.600360
  O      6.353280   -0.667190   -3.924225
  C      5.087675   -2.737297   -2.592959
  N      5.796855   -3.717512   -3.406565
  C      4.877854   -4.628362   -4.067939
  C      6.755502   -4.450143   -2.597796
  H     -0.832365    1.824359   -4.454203
  H      0.184361   -1.066312   -1.361792
  H      2.431103    0.748458   -5.771177
  H      4.901994    0.932646   -5.485582
  H      2.385236   -2.614008   -3.098357
  H      6.733721    0.064427   -4.431147
  H      4.388889   -3.229578   -1.887499
  H      5.830318   -2.195662   -1.998090
  H      4.199600   -4.075500   -4.723355
  H      4.270818   -5.207523   -3.344409
  H      5.445374   -5.332186   -4.683002
  H      7.474899   -3.753769   -2.157299
  H      7.302359   -5.155236   -3.230204
  H      6.271433   -5.020793   -1.781609

----------------------------
CARTESIAN COORDINATES (A.U.)
----------------------------
  NO LB      ZA    FRAG     MASS         X           Y           Z
   0 C     6.0000    0    12.011   -1.374185    1.736228   -2.662710
   1 S    16.0000    0    32.060   -2.137594    2.570883    0.482912
   2 O     8.0000    0    15.999   -1.303933    0.437114    1.977596
   3 O     8.0000    0    15.999   -1.297323    5.139517    0.891152
   4 N     7.0000    0    14.007   -5.254852    2.645847    0.663706
   5 H     1.0000    0     1.008   -6.091969    0.951237    0.322878
   6 H     1.0000    0     1.008   -6.042762    4.111706   -0.295413
   7 O     8.0000    0    15.999   -1.969075    3.415749   -4.507014
   8 C     6.0000    0    12.011   -1.235367    2.377211   -6.713449
   9 C     6.0000    0    12.011   -0.191759    0.066172   -6.284154
  10 C     6.0000    0    12.011   -0.284952   -0.378378   -3.618320
  11 S    16.0000    0    32.060    0.980803   -1.949931   -8.670003
  12 C     6.0000    0    12.011    4.307804   -1.748927   -8.367917
  13 O     8.0000    0    15.999    0.251760   -0.776009  -11.060705
  14 O     8.0000    0    15.999    0.217639   -4.513370   -8.001566
  15 C     6.0000    0    12.011    5.607405    0.131317   -9.665700
  16 C     6.0000    0    12.011    8.209087    0.308208   -9.367972
  17 C     6.0000    0    12.011    9.479950   -1.390523   -7.792993
  18 C     6.0000    0    12.011    8.171855   -3.310575   -6.501921
  19 C     6.0000    0    12.011    5.568434   -3.455825   -6.803695
  20 O     8.0000    0    15.999   12.005959   -1.260806   -7.415711
  21 C     6.0000    0    12.011    9.614313   -5.172741   -4.899982
  22 N     7.0000    0    14.007   10.954468   -7.025080   -6.437475
  23 C     6.0000    0    12.011    9.217809   -8.746338   -7.687290
  24 C     6.0000    0    12.011   12.766048   -8.409552   -4.909122
  25 H     1.0000    0     1.008   -1.572941    3.447539   -8.417224
  26 H     1.0000    0     1.008    0.348393   -2.015038   -2.573415
  27 H     1.0000    0     1.008    4.594118    1.414381  -10.905944
  28 H     1.0000    0     1.008    9.263426    1.762446  -10.366248
  29 H     1.0000    0     1.008    4.507442   -4.939759   -5.855047
  30 H     1.0000    0     1.008   12.724888    0.121750   -8.373654
  31 H     1.0000    0     1.008    8.293798   -6.103019   -3.566857
  32 H     1.0000    0     1.008   11.017704   -4.149199   -3.775843
  33 H     1.0000    0     1.008    7.936093   -7.701579   -8.925847
  34 H     1.0000    0     1.008    8.070676   -9.840793   -6.320017
  35 H     1.0000    0     1.008   10.290266  -10.076372   -8.849590
  36 H     1.0000    0     1.008   14.125513   -7.093595   -4.076704
  37 H     1.0000    0     1.008   13.799458   -9.741983   -6.104201
  38 H     1.0000    0     1.008   11.851292   -9.487925   -3.366753

--------------------------------
INTERNAL COORDINATES (ANGSTROEM)
--------------------------------
 C      0   0   0     0.000000000000     0.00000000     0.00000000
 S      1   0   0     1.768938886417     0.00000000     0.00000000
 O      2   1   0     1.447475697553   104.46716582     0.00000000
 O      2   1   3     1.446367633626   107.75768014   133.43231185
 N      2   1   3     1.652829715763   106.76139279   246.92965528
 H      5   2   1     1.016327770322   113.80100209    62.52843991
 H      5   2   1     1.016441295701   113.50359870   290.02383161
 O      1   2   3     1.357021415690   117.40412375   179.61553398
 C      8   1   2     1.347610500488   106.80992156   180.41186753
 C      9   8   1     1.360954206377   109.80039235     0.11607685
 C      1   2   3     1.356509425138   130.82899587     0.60072043
 S     10   9   8     1.765569499519   124.48828746   179.20466797
 C     12  10   9     1.771012829494   104.39059543   106.27629426
 O     12  10   9     1.461242962741   105.63020471   352.09933048
 O     12  10   9     1.458883875534   106.92976417   220.58936309
 C     13  12  10     1.390892315500   119.33573479   271.84477569
 C     16  13  12     1.388894199011   118.83733434   178.50016878
 C     17  16  13     1.398204177005   120.07041630     0.22256842
 C     18  17  16     1.406514792272   121.14881847     0.49892114
 C     19  18  17     1.389023344961   118.18081452   359.09948746
 O     18  17  16     1.353275617961   122.03398262   181.11591407
 C     19  18  17     1.507417660269   119.74784114   177.60278546
 N     22  19  18     1.457982488572   111.83813726   285.05667094
 C     23  22  19     1.453143334753   111.57850647   290.56727429
 C     23  22  19     1.452535955113   110.45119218   166.88950722
 H      9   8   1     1.079626007070   117.51182505   179.53799513
 H     11   1   2     1.080818919480   127.01803597   359.83313531
 H     16  13  12     1.085936774734   120.10145670   357.68070843
 H     17  16  13     1.087455033952   120.07713990   179.92891527
 H     20  19  18     1.088060675072   119.91328313   178.96437571
 H     21  18  17     0.967971065887   110.44419935   359.77459108
 H     22  19  18     1.108294456908   109.21114583   161.41014767
 H     22  19  18     1.094876669602   109.00297069    44.16773704
 H     24  23  22     1.093277878640   110.37859889    60.04436404
 H     24  23  22     1.107888154092   112.14539186   299.04243892
 H     24  23  22     1.093503098203   109.34282183   178.80658838
 H     25  23  22     1.093850115657   109.70485209   300.72215702
 H     25  23  22     1.093685262812   109.46371062   181.98351021
 H     25  23  22     1.107304897252   112.44695449    61.67351874

---------------------------
INTERNAL COORDINATES (A.U.)
---------------------------
 C      0   0   0     0.000000000000     0.00000000     0.00000000
 S      1   0   0     3.342810042972     0.00000000     0.00000000
 O      2   1   0     2.735332653881   104.46716582     0.00000000
 O      2   1   3     2.733238716521   107.75768014   133.43231185
 N      2   1   3     3.123395508798   106.76139279   246.92965528
 H      5   2   1     1.920581148208   113.80100209    62.52843991
 H      5   2   1     1.920795680083   113.50359870   290.02383161
 O      1   2   3     2.564398833521   117.40412375   179.61553398
 C      8   1   2     2.546614781120   106.80992156   180.41186753
 C      9   8   1     2.571830730861   109.80039235     0.11607685
 C      1   2   3     2.563431311593   130.82899587     0.60072043
 S     10   9   8     3.336442824496   124.48828746   179.20466797
 C     12  10   9     3.346729227405   104.39059543   106.27629426
 O     12  10   9     2.761349014700   105.63020471   352.09933048
 O     12  10   9     2.756890985953   106.92976417   220.58936309
 C     13  12  10     2.628405558070   119.33573479   271.84477569
 C     16  13  12     2.624629665122   118.83733434   178.50016878
 C     17  16  13     2.642222973845   120.07041630     0.22256842
 C     18  17  16     2.657927760703   121.14881847     0.49892114
 C     19  18  17     2.624873715599   118.18081452   359.09948746
 O     18  17  16     2.557320301660   122.03398262   181.11591407
 C     19  18  17     2.848606547344   119.74784114   177.60278546
 N     22  19  18     2.755187611454   111.83813726   285.05667094
 C     23  22  19     2.746042936016   111.57850647   290.56727429
 C     23  22  19     2.744895154838   110.45119218   166.88950722
 H      9   8   1     2.040197480421   117.51182505   179.53799513
 H     11   1   2     2.042451758179   127.01803597   359.83313531
 H     16  13  12     2.052123103002   120.10145670   357.68070843
 H     17  16  13     2.054992197124   120.07713990   179.92891527
 H     20  19  18     2.056136692975   119.91328313   178.96437571
 H     21  18  17     1.829200220087   110.44419935   359.77459108
 H     22  19  18     2.094372999299   109.21114583   161.41014767
 H     22  19  18     2.069017055968   109.00297069    44.16773704
 H     24  23  22     2.065995778904   110.37859889    60.04436404
 H     24  23  22     2.093605198249   112.14539186   299.04243892
 H     24  23  22     2.066421382197   109.34282183   178.80658838
 H     25  23  22     2.067077150149   109.70485209   300.72215702
 H     25  23  22     2.066765623420   109.46371062   181.98351021
 H     25  23  22     2.092503002556   112.44695449    61.67351874

---------------------
BASIS SET INFORMATION
---------------------
There are 5 groups of distinct atoms

 Group   1 Type C   : 19s6p3d2f contracted to 5s4p3d2f pattern {88111/3111/111/11}
 Group   2 Type S   : 42s17p3d2f contracted to 6s5p3d2f pattern {131313111/77111/111/11}
 Group   3 Type O   : 19s6p3d2f contracted to 5s4p3d2f pattern {88111/3111/111/11}
 Group   4 Type N   : 19s6p3d2f contracted to 5s4p3d2f pattern {88111/3111/111/11}
 Group   5 Type H   : 6s3p2d contracted to 4s3p2d pattern {3111/111/11}

Atom   0C    basis set group =>   1
Atom   1S    basis set group =>   2
Atom   2O    basis set group =>   3
Atom   3O    basis set group =>   3
Atom   4N    basis set group =>   4
Atom   5H    basis set group =>   5
Atom   6H    basis set group =>   5
Atom   7O    basis set group =>   3
Atom   8C    basis set group =>   1
Atom   9C    basis set group =>   1
Atom  10C    basis set group =>   1
Atom  11S    basis set group =>   2
Atom  12C    basis set group =>   1
Atom  13O    basis set group =>   3
Atom  14O    basis set group =>   3
Atom  15C    basis set group =>   1
Atom  16C    basis set group =>   1
Atom  17C    basis set group =>   1
Atom  18C    basis set group =>   1
Atom  19C    basis set group =>   1
Atom  20O    basis set group =>   3
Atom  21C    basis set group =>   1
Atom  22N    basis set group =>   4
Atom  23C    basis set group =>   1
Atom  24C    basis set group =>   1
Atom  25H    basis set group =>   5
Atom  26H    basis set group =>   5
Atom  27H    basis set group =>   5
Atom  28H    basis set group =>   5
Atom  29H    basis set group =>   5
Atom  30H    basis set group =>   5
Atom  31H    basis set group =>   5
Atom  32H    basis set group =>   5
Atom  33H    basis set group =>   5
Atom  34H    basis set group =>   5
Atom  35H    basis set group =>   5
Atom  36H    basis set group =>   5
Atom  37H    basis set group =>   5
Atom  38H    basis set group =>   5
---------------------------------
AUXILIARY/J BASIS SET INFORMATION
---------------------------------
There are 5 groups of distinct atoms

 Group   1 Type C   : 12s5p4d2f1g contracted to 6s4p3d1f1g pattern {711111/2111/211/2/1}
 Group   2 Type S   : 14s5p5d2f1g contracted to 8s4p3d1f1g pattern {71111111/2111/311/2/1}
 Group   3 Type O   : 12s5p4d2f1g contracted to 6s4p3d1f1g pattern {711111/2111/211/2/1}
 Group   4 Type N   : 12s5p4d2f1g contracted to 6s4p3d1f1g pattern {711111/2111/211/2/1}
 Group   5 Type H   : 5s2p1d contracted to 3s1p1d pattern {311/2/1}

Atom   0C    basis set group =>   1
Atom   1S    basis set group =>   2
Atom   2O    basis set group =>   3
Atom   3O    basis set group =>   3
Atom   4N    basis set group =>   4
Atom   5H    basis set group =>   5
Atom   6H    basis set group =>   5
Atom   7O    basis set group =>   3
Atom   8C    basis set group =>   1
Atom   9C    basis set group =>   1
Atom  10C    basis set group =>   1
Atom  11S    basis set group =>   2
Atom  12C    basis set group =>   1
Atom  13O    basis set group =>   3
Atom  14O    basis set group =>   3
Atom  15C    basis set group =>   1
Atom  16C    basis set group =>   1
Atom  17C    basis set group =>   1
Atom  18C    basis set group =>   1
Atom  19C    basis set group =>   1
Atom  20O    basis set group =>   3
Atom  21C    basis set group =>   1
Atom  22N    basis set group =>   4
Atom  23C    basis set group =>   1
Atom  24C    basis set group =>   1
Atom  25H    basis set group =>   5
Atom  26H    basis set group =>   5
Atom  27H    basis set group =>   5
Atom  28H    basis set group =>   5
Atom  29H    basis set group =>   5
Atom  30H    basis set group =>   5
Atom  31H    basis set group =>   5
Atom  32H    basis set group =>   5
Atom  33H    basis set group =>   5
Atom  34H    basis set group =>   5
Atom  35H    basis set group =>   5
Atom  36H    basis set group =>   5
Atom  37H    basis set group =>   5
Atom  38H    basis set group =>   5
---------------------------------
AUXILIARY/C BASIS SET INFORMATION
---------------------------------
There are 5 groups of distinct atoms

 Group   1 Type C   : 9s7p6d4f2g contracted to 9s7p6d4f2g pattern {111111111/1111111/111111/1111/11}
 Group   2 Type S   : 11s9p8d6f3g contracted to 11s9p8d6f3g pattern {11111111111/111111111/11111111/111111/111}
 Group   3 Type O   : 9s7p6d4f2g contracted to 9s7p6d4f2g pattern {111111111/1111111/111111/1111/11}
 Group   4 Type N   : 9s7p6d4f2g contracted to 9s7p6d4f2g pattern {111111111/1111111/111111/1111/11}
 Group   5 Type H   : 5s4p3d2f contracted to 5s4p3d2f pattern {11111/1111/111/11}

Atom   0C    basis set group =>   1
Atom   1S    basis set group =>   2
Atom   2O    basis set group =>   3
Atom   3O    basis set group =>   3
Atom   4N    basis set group =>   4
Atom   5H    basis set group =>   5
Atom   6H    basis set group =>   5
Atom   7O    basis set group =>   3
Atom   8C    basis set group =>   1
Atom   9C    basis set group =>   1
Atom  10C    basis set group =>   1
Atom  11S    basis set group =>   2
Atom  12C    basis set group =>   1
Atom  13O    basis set group =>   3
Atom  14O    basis set group =>   3
Atom  15C    basis set group =>   1
Atom  16C    basis set group =>   1
Atom  17C    basis set group =>   1
Atom  18C    basis set group =>   1
Atom  19C    basis set group =>   1
Atom  20O    basis set group =>   3
Atom  21C    basis set group =>   1
Atom  22N    basis set group =>   4
Atom  23C    basis set group =>   1
Atom  24C    basis set group =>   1
Atom  25H    basis set group =>   5
Atom  26H    basis set group =>   5
Atom  27H    basis set group =>   5
Atom  28H    basis set group =>   5
Atom  29H    basis set group =>   5
Atom  30H    basis set group =>   5
Atom  31H    basis set group =>   5
Atom  32H    basis set group =>   5
Atom  33H    basis set group =>   5
Atom  34H    basis set group =>   5
Atom  35H    basis set group =>   5
Atom  36H    basis set group =>   5
Atom  37H    basis set group =>   5
Atom  38H    basis set group =>   5


           ************************************************************
           *        Program running with 8 parallel MPI-processes     *
           *              working on a common directory               *
           ************************************************************
------------------------------------------------------------------------------
                           ORCA GTO INTEGRAL CALCULATION
                           -- RI-GTO INTEGRALS CHOSEN --
------------------------------------------------------------------------------
------------------------------------------------------------------------------
                   ___                                                        
                  /   \      - P O W E R E D   B Y -                         
                 /     \                                                     
                 |  |  |   _    _      __       _____    __    __             
                 |  |  |  | |  | |    /  \     |  _  \  |  |  /  |          
                  \  \/   | |  | |   /    \    | | | |  |  | /  /          
                 / \  \   | |__| |  /  /\  \   | |_| |  |  |/  /          
                |  |  |   |  __  | /  /__\  \  |    /   |      \           
                |  |  |   | |  | | |   __   |  |    \   |  |\   \          
                \     /   | |  | | |  |  |  |  | |\  \  |  | \   \       
                 \___/    |_|  |_| |__|  |__|  |_| \__\ |__|  \__/        
                                                                              
                      - O R C A' S   B I G   F R I E N D -                    
                                      &                                       
                       - I N T E G R A L  F E E D E R -                       
                                                                              
 v1 FN, 2020, v2 2021                                                         
------------------------------------------------------------------------------


Reading SHARK input file HA.18.avtz.SHARKINP.tmp ... ok
----------------------
SHARK INTEGRAL PACKAGE
----------------------

Number of atoms                             ...     39
Number of basis functions                   ...   1610
Number of shells                            ...    626
Maximum angular momentum                    ...      3
Integral batch strategy                     ... SHARK/LIBINT Hybrid
RI-J (if used) integral strategy            ... SPLIT-RIJ (Revised 2003 algorithm where possible)
Printlevel                                  ...      1
Contraction scheme used                     ... PARTIAL GENERAL contraction
Coulomb Range Separation                    ... NOT USED
Exchange Range Separation                   ... NOT USED
Finite Nucleus Model                        ... NOT USED
Auxiliary Coulomb fitting basis             ... AVAILABLE
   # of basis functions in Aux-J            ...   1307
   # of shells in Aux-J                     ...    429
   Maximum angular momentum in Aux-J        ...      4
Auxiliary J/K fitting basis                 ... NOT available
Auxiliary Correlation fitting basis         ... AVAILABLE
   # of basis functions in Aux-C            ...   3256
   # of shells in Aux-C                     ...    886
   Maximum angular momentum in Aux-C        ...      4
Auxiliary 'external' fitting basis          ... NOT available
Integral threshold                          ...     2.500000e-11
Primitive cut-off                           ...     2.500000e-12
Primitive pair pre-selection threshold      ...     2.500000e-12

Calculating pre-screening integrals         ... done (  0.1 sec) Dimension = 626
Calculating pre-screening integrals (ORCA)  ... done (  0.5 sec) Dimension = 470
Organizing shell pair data                  ... done (  1.5 sec)
Shell pair information
Total number of shell pairs                 ...    196251
Shell pairs after pre-screening             ...    120109
Total number of primitive shell pairs       ...    245461
Primitive shell pairs kept                  ...    136733
          la=0 lb=0:  26501 shell pairs
          la=1 lb=0:  31802 shell pairs
          la=1 lb=1:   8765 shell pairs
          la=2 lb=0:  20131 shell pairs
          la=2 lb=1:  11243 shell pairs
          la=2 lb=2:   3692 shell pairs
          la=3 lb=0:   8921 shell pairs
          la=3 lb=1:   5045 shell pairs
          la=3 lb=2:   3249 shell pairs
          la=3 lb=3:    760 shell pairs

Calculating one electron integrals          ... done (  0.4 sec)
Calculating RI/J V-Matrix + Cholesky decomp.... done (  0.2 sec)
Calculating RI/C V-Matrix + Cholesky decomp.... done (  0.8 sec)
Calculating Nuclear repulsion               ... done (  0.0 sec) ENN=   2324.512717812416 Eh

SHARK setup successfully completed in   4.9 seconds

Maximum memory used throughout the entire GTOINT-calculation: 158.7 MB


           ************************************************************
           *        Program running with 8 parallel MPI-processes     *
           *              working on a common directory               *
           ************************************************************
-------------------------------------------------------------------------------
                                 ORCA SCF
-------------------------------------------------------------------------------

------------
SCF SETTINGS
------------
Hamiltonian:
 Density Functional     Method          .... DFT(GTOs)
 Exchange Functional    Exchange        .... PBE
   PBE kappa parameter   XKappa         ....  0.804000
   PBE mue parameter    XMuePBE         ....  0.219520
 Correlation Functional Correlation     .... P86
 LDA part of GGA corr.  LDAOpt          .... VWN-5
 Gradients option       PostSCFGGA      .... off
 Hybrid DFT is turned on
   Fraction HF Exchange ScalHFX         ....  0.700000
   Scaling of DF-GGA-X  ScalDFX         ....  0.300000
   Scaling of DF-GGA-C  ScalDFC         ....  0.430000
   Scaling of DF-LDA-C  ScalLDAC        ....  0.430000
   Perturbative correction              ....  1.000000
   Density functional embedding theory  .... OFF
   NL short-range parameter             .... 14.200000
 RI-approximation to the Coulomb term is turned on
   Number of AuxJ basis functions       .... 1307
   RIJ-COSX (HFX calculated with COS-X)).... on


General Settings:
 Integral files         IntName         .... HA.18.avtz
 Hartree-Fock type      HFTyp           .... RHF
 Total Charge           Charge          ....    0
 Multiplicity           Mult            ....    1
 Number of Electrons    NEL             ....  188
 Basis Dimension        Dim             .... 1434
 Nuclear Repulsion      ENuc            ....   2324.5127178124 Eh

Convergence Acceleration:
 DIIS                   CNVDIIS         .... on
   Start iteration      DIISMaxIt       ....    12
   Startup error        DIISStart       ....  0.200000
   # of expansion vecs  DIISMaxEq       ....     5
   Bias factor          DIISBfac        ....   1.050
   Max. coefficient     DIISMaxC        ....  10.000
 Trust-Rad. Augm. Hess. CNVTRAH         .... auto
   Auto Start mean grad. ratio tolernc. ....  1.125000
   Auto Start start iteration           ....    20
   Auto Start num. interpolation iter.  ....    10
   Max. Number of Micro iterations      ....    16
   Max. Number of Macro iterations      .... Maxiter - #DIIS iter
   Number of Davidson start vectors     ....     2
   Converg. threshold I  (grad. norm)   ....   1.000e-05
   Converg. threshold II (energy diff.) ....   1.000e-08
   Grad. Scal. Fac. for Micro threshold ....   0.100
   Minimum threshold for Micro iter.    ....   0.010
   NR start threshold (gradient norm)   ....   0.001
   Initial trust radius                 ....   0.400
   Minimum AH scaling param. (alpha)    ....   1.000
   Maximum AH scaling param. (alpha)    .... 1000.000
   Orbital update algorithm             .... Taylor
   White noise on init. David. guess    .... on
   Maximum white noise                  ....   0.010
   Quad. conv. algorithm                .... NR
 SOSCF                  CNVSOSCF        .... on
   Start iteration      SOSCFMaxIt      ....   150
   Startup grad/error   SOSCFStart      ....  0.003300
 Level Shifting         CNVShift        .... on
   Level shift para.    LevelShift      ....    0.2500
   Turn off err/grad.   ShiftErr        ....    0.0010
 Zerner damping         CNVZerner       .... off
 Static damping         CNVDamp         .... on
   Fraction old density DampFac         ....    0.7000
   Max. Damping (<1)    DampMax         ....    0.9800
   Min. Damping (>=0)   DampMin         ....    0.0000
   Turn off err/grad.   DampErr         ....    0.1000
 Fernandez-Rico         CNVRico         .... off

SCF Procedure:
 Maximum # iterations   MaxIter         ....   125
 SCF integral mode      SCFMode         .... Direct
   Integral package                     .... SHARK and LIBINT hybrid scheme
 Reset frequency        DirectResetFreq ....    20
 Integral Threshold     Thresh          ....  2.500e-11 Eh
 Primitive CutOff       TCut            ....  2.500e-12 Eh

Convergence Tolerance:
 Convergence Check Mode ConvCheckMode   .... Total+1el-Energy
 Convergence forced     ConvForced      .... 0
 Energy Change          TolE            ....  1.000e-08 Eh
 1-El. energy change                    ....  1.000e-05 Eh
 Orbital Gradient       TolG            ....  1.000e-05
 Orbital Rotation angle TolX            ....  1.000e-05
 DIIS Error             TolErr          ....  5.000e-07


Diagonalization of the overlap matrix:
Smallest eigenvalue                        ... 3.511e-07
Time for diagonalization                   ...    0.394 sec
Threshold for overlap eigenvalues          ... 1.000e-08
Number of eigenvalues below threshold      ... 0
Time for construction of square roots      ...    0.309 sec
Total time needed                          ...    0.714 sec

Time for model grid setup =    0.645 sec

------------------------------
INITIAL GUESS: MODEL POTENTIAL
------------------------------
Loading Hartree-Fock densities                     ... done
Calculating cut-offs                               ... done
Initializing the effective Hamiltonian             ... done
Setting up the integral package (SHARK)            ... done
Starting the Coulomb interaction                   ... done (   1.9 sec)
Reading the grid                                   ... done
Mapping shells                                     ... done
Starting the XC term evaluation                    ... done (   1.9 sec)
  promolecular density results
     # of electrons  =    187.993657760
     EX              =   -183.311606390
     EC              =     -0.055307173
     EX+EC           =   -183.366913563
Transforming the Hamiltonian                       ... done (   0.2 sec)
Diagonalizing the Hamiltonian                      ... done (   0.4 sec)
Back transforming the eigenvectors                 ... done (   0.1 sec)
Now organizing SCF variables                       ... done
                      ------------------
                      INITIAL GUESS DONE (   5.2 sec)
                      ------------------
-------------------
DFT GRID GENERATION
-------------------

General Integration Accuracy     IntAcc      ... 4.388
Radial Grid Type                 RadialGrid  ... OptM3 with GC (2021)
Angular Grid (max. ang.)         AngularGrid ... 4 (Lebedev-302)
Angular grid pruning method      GridPruning ... 4 (adaptive)
Weight generation scheme         WeightScheme... Becke
Basis function cutoff            BFCut       ... 1.0000e-11
Integration weight cutoff        WCut        ... 1.0000e-14
Angular grids for H and He will be reduced by one unit
Partially contracted basis set               ... off
Rotationally invariant grid construction     ... off

Total number of grid points                  ...   200231
Total number of batches                      ...     3150
Average number of points per batch           ...       63
Average number of grid points per atom       ...     5134
Time for grid setup =    2.015 sec

--------------------
COSX GRID GENERATION
--------------------

GRIDX 1
-------
General Integration Accuracy     IntAcc      ... 3.816
Radial Grid Type                 RadialGrid  ... OptM3 with GC (2021)
Angular Grid (max. ang.)         AngularGrid ... 1 (Lebedev-50)
Angular grid pruning method      GridPruning ... 4 (adaptive)
Weight generation scheme         WeightScheme... Becke
Basis function cutoff            BFCut       ... 1.0000e-11
Integration weight cutoff        WCut        ... 1.0000e-14
Angular grids for H and He will be reduced by one unit
Partially contracted basis set               ... on
Rotationally invariant grid construction     ... off

Total number of grid points                  ...    24863
Total number of batches                      ...      407
Average number of points per batch           ...       61
Average number of grid points per atom       ...      638
UseSFitting                                  ... on

GRIDX 2
-------
General Integration Accuracy     IntAcc      ... 4.020
Radial Grid Type                 RadialGrid  ... OptM3 with GC (2021)
Angular Grid (max. ang.)         AngularGrid ... 2 (Lebedev-110)
Angular grid pruning method      GridPruning ... 4 (adaptive)
Weight generation scheme         WeightScheme... Becke
Basis function cutoff            BFCut       ... 1.0000e-11
Integration weight cutoff        WCut        ... 1.0000e-14
Angular grids for H and He will be reduced by one unit
Partially contracted basis set               ... on
Rotationally invariant grid construction     ... off

Total number of grid points                  ...    59992
Total number of batches                      ...      955
Average number of points per batch           ...       62
Average number of grid points per atom       ...     1538
UseSFitting                                  ... on

GRIDX 3
-------
General Integration Accuracy     IntAcc      ... 4.338
Radial Grid Type                 RadialGrid  ... OptM3 with GC (2021)
Angular Grid (max. ang.)         AngularGrid ... 3 (Lebedev-194)
Angular grid pruning method      GridPruning ... 4 (adaptive)
Weight generation scheme         WeightScheme... Becke
Basis function cutoff            BFCut       ... 1.0000e-11
Integration weight cutoff        WCut        ... 1.0000e-14
Angular grids for H and He will be reduced by one unit
Partially contracted basis set               ... on
Rotationally invariant grid construction     ... off

Total number of grid points                  ...   133308
Total number of batches                      ...     2104
Average number of points per batch           ...       63
Average number of grid points per atom       ...     3418
UseSFitting                                  ... on

Time for X-Grid setup             =    7.084 sec

 re-compute Schwartz prescreening matrix in partically contracted basis (1) ...done (   0.150 sec)
--------------
SCF ITERATIONS
--------------
ITER       Energy         Delta-E        Max-DP      RMS-DP      [F,P]     Damp
               ***  Starting incremental Fock matrix formation  ***
  0  -1857.1219869433   0.000000000000 0.45341794  0.00250934  0.2929346 0.7000
  1  -1857.4492243909  -0.327237447554 0.39942309  0.00202515  0.1470967 0.7000
                               ***Turning on DIIS***
  2  -1857.6066375441  -0.157413153225 0.99114318  0.00487117  0.0694308 0.0000
  3  -1857.8785533318  -0.271915787692 0.10648745  0.00083969  0.0632774 0.0000
  4  -1857.9159383511  -0.037385019273 0.05759676  0.00031941  0.0081139 0.0000
  5  -1857.9172113150  -0.001272963964 0.01858480  0.00013536  0.0053318 0.0000
                      *** Initiating the SOSCF procedure ***
                           *** Shutting down DIIS ***
                      *** Re-Reading the Fockian *** 
                      *** Removing any level shift *** 
ITER      Energy       Delta-E        Grad      Rot      Max-DP    RMS-DP
  6  -1857.91751801  -0.0003066949  0.000602  0.000602  0.027324  0.000096
               *** Restarting incremental Fock matrix formation ***
  7  -1857.91747714   0.0000408681  0.000438  0.001034  0.209972  0.001788
  8  -1857.91749968  -0.0000225396  0.000104  0.000342  0.056848  0.000486
  9  -1857.91750190  -0.0000022205  0.000113  0.000131  0.044042  0.000350
 10  -1857.91750346  -0.0000015587  0.000023  0.000070  0.018618  0.000147
 11  -1857.91750349  -0.0000000263  0.000010  0.000025  0.016130  0.000063
                  ***Gradient check signals convergence***
              ***Rediagonalizing the Fockian in SOSCF/NRSCF***

               *****************************************************
               *                     SUCCESS                       *
               *           SCF CONVERGED AFTER  12 CYCLES          *
               *****************************************************

Old exchange energy                            =   -130.295372726 Eh
New exchange energy                            =   -130.294954183 Eh
Exchange energy change after final integration =      0.000418542 Eh
Total energy after final integration           =  -1857.917084995 Eh
Final COS-X integration done in                =   104.376 sec

----------------
TOTAL SCF ENERGY
----------------

Total Energy       :        -1857.91708500 Eh          -50556.49413 eV

Components:
Nuclear Repulsion  :         2324.51271781 Eh           63253.20678 eV
Electronic Energy  :        -4182.42980281 Eh         -113809.70091 eV
One Electron Energy:        -7173.23018561 Eh         -195193.51680 eV
Two Electron Energy:         2990.80038281 Eh           81383.81589 eV
Max COSX asymmetry :            0.00005157 Eh               0.00140 eV

Virial components:
Potential Energy   :        -3710.62944025 Eh         -100971.36035 eV
Kinetic Energy     :         1852.71235525 Eh           50414.86623 eV
Virial Ratio       :            2.00280925


DFT components:
N(Alpha)           :       94.000135387702 electrons
N(Beta)            :       94.000135387702 electrons
N(Total)           :      188.000270775404 electrons
E(X)               :      -55.639192972022 Eh       
E(C)               :       -3.140958477771 Eh       
E(XC)              :      -58.780151449794 Eh       
DFET-embed. en.    :        0.000000000000 Eh       

---------------
SCF CONVERGENCE
---------------

  Last Energy change         ...   -5.0414e-08  Tolerance :   1.0000e-08
  Last MAX-Density change    ...    3.1086e-15  Tolerance :   1.0000e-07
  Last RMS-Density change    ...    2.1199e-17  Tolerance :   5.0000e-09
  Last Orbital Gradient      ...    1.8544e-06  Tolerance :   1.0000e-05
  Last Orbital Rotation      ...    7.6160e-06  Tolerance :   1.0000e-05

             **** THE GBW FILE WAS UPDATED (HA.18.avtz.gbw) ****
             **** DENSITY HA.18.avtz.scfp WAS UPDATED ****
             **** ENERGY FILE WAS UPDATED (HA.18.avtz.en.tmp) ****
             **** THE GBW FILE WAS UPDATED (HA.18.avtz.gbw) ****
             **** DENSITY HA.18.avtz.scfp WAS UPDATED ****
----------------
ORBITAL ENERGIES
----------------

  NO   OCC          E(Eh)            E(eV) 
   0   2.0000     -91.063031     -2477.9510 
   1   2.0000     -91.035829     -2477.2108 
   2   2.0000     -20.146496      -548.2140 
   3   2.0000     -20.081227      -546.4380 
   4   2.0000     -20.032970      -545.1248 
   5   2.0000     -20.032118      -545.1016 
   6   2.0000     -20.022087      -544.8287 
   7   2.0000     -20.021772      -544.8201 
   8   2.0000     -15.153215      -412.3399 
   9   2.0000     -15.092222      -410.6802 
  10   2.0000     -10.947116      -297.8862 
  11   2.0000     -10.944894      -297.8257 
  12   2.0000     -10.934537      -297.5439 
  13   2.0000     -10.893370      -296.4237 
  14   2.0000     -10.891496      -296.3727 
  15   2.0000     -10.879943      -296.0583 
  16   2.0000     -10.877584      -295.9941 
  17   2.0000     -10.873524      -295.8836 
  18   2.0000     -10.867917      -295.7311 
  19   2.0000     -10.864042      -295.6256 
  20   2.0000     -10.862721      -295.5897 
  21   2.0000     -10.848256      -295.1960 
  22   2.0000     -10.845969      -295.1338 
  23   2.0000      -8.804828      -239.5916 
  24   2.0000      -8.781534      -238.9577 
  25   2.0000      -6.591133      -179.3538 
  26   2.0000      -6.590076      -179.3251 
  27   2.0000      -6.588004      -179.2687 
  28   2.0000      -6.566964      -178.6962 
  29   2.0000      -6.566227      -178.6761 
  30   2.0000      -6.564890      -178.6398 
  31   2.0000      -1.398404       -38.0525 
  32   2.0000      -1.355635       -36.8887 
  33   2.0000      -1.333031       -36.2736 
  34   2.0000      -1.312410       -35.7125 
  35   2.0000      -1.242073       -33.7985 
  36   2.0000      -1.225421       -33.3454 
  37   2.0000      -1.131461       -30.7886 
  38   2.0000      -1.128076       -30.6965 
  39   2.0000      -1.080181       -29.3932 
  40   2.0000      -1.047069       -28.4922 
  41   2.0000      -0.985205       -26.8088 
  42   2.0000      -0.975120       -26.5344 
  43   2.0000      -0.958125       -26.0719 
  44   2.0000      -0.874675       -23.8011 
  45   2.0000      -0.866752       -23.5855 
  46   2.0000      -0.862969       -23.4826 
  47   2.0000      -0.837754       -22.7964 
  48   2.0000      -0.801037       -21.7973 
  49   2.0000      -0.782817       -21.3015 
  50   2.0000      -0.760594       -20.6968 
  51   2.0000      -0.740699       -20.1554 
  52   2.0000      -0.731308       -19.8999 
  53   2.0000      -0.702995       -19.1295 
  54   2.0000      -0.691438       -18.8150 
  55   2.0000      -0.676381       -18.4053 
  56   2.0000      -0.656693       -17.8695 
  57   2.0000      -0.651704       -17.7338 
  58   2.0000      -0.636499       -17.3200 
  59   2.0000      -0.630257       -17.1502 
  60   2.0000      -0.618007       -16.8168 
  61   2.0000      -0.609998       -16.5989 
  62   2.0000      -0.591969       -16.1083 
  63   2.0000      -0.589111       -16.0305 
  64   2.0000      -0.584716       -15.9109 
  65   2.0000      -0.581349       -15.8193 
  66   2.0000      -0.579129       -15.7589 
  67   2.0000      -0.569792       -15.5048 
  68   2.0000      -0.563932       -15.3454 
  69   2.0000      -0.552919       -15.0457 
  70   2.0000      -0.549160       -14.9434 
  71   2.0000      -0.540028       -14.6949 
  72   2.0000      -0.521266       -14.1844 
  73   2.0000      -0.515435       -14.0257 
  74   2.0000      -0.494102       -13.4452 
  75   2.0000      -0.481289       -13.0966 
  76   2.0000      -0.473736       -12.8910 
  77   2.0000      -0.472163       -12.8482 
  78   2.0000      -0.468013       -12.7353 
  79   2.0000      -0.459988       -12.5169 
  80   2.0000      -0.458767       -12.4837 
  81   2.0000      -0.452487       -12.3128 
  82   2.0000      -0.450152       -12.2492 
  83   2.0000      -0.448319       -12.1994 
  84   2.0000      -0.446104       -12.1391 
  85   2.0000      -0.436505       -11.8779 
  86   2.0000      -0.433048       -11.7838 
  87   2.0000      -0.425214       -11.5707 
  88   2.0000      -0.411048       -11.1852 
  89   2.0000      -0.402908       -10.9637 
  90   2.0000      -0.346814        -9.4373 
  91   2.0000      -0.342553        -9.3213 
  92   2.0000      -0.316308        -8.6072 
  93   2.0000      -0.314787        -8.5658 
  94   0.0000       0.007383         0.2009 
  95   0.0000       0.010169         0.2767 
  96   0.0000       0.012544         0.3413 
  97   0.0000       0.019650         0.5347 
  98   0.0000       0.025104         0.6831 
  99   0.0000       0.026229         0.7137 
 100   0.0000       0.030596         0.8326 
 101   0.0000       0.032801         0.8926 
 102   0.0000       0.039462         1.0738 
 103   0.0000       0.040282         1.0961 
 104   0.0000       0.040872         1.1122 
 105   0.0000       0.042351         1.1524 
 106   0.0000       0.048145         1.3101 
 107   0.0000       0.052444         1.4271 
 108   0.0000       0.056108         1.5268 
 109   0.0000       0.058420         1.5897 
 110   0.0000       0.062088         1.6895 
 111   0.0000       0.065534         1.7833 
 112   0.0000       0.070401         1.9157 
 113   0.0000       0.071672         1.9503 
 114   0.0000       0.076672         2.0863 
 115   0.0000       0.077770         2.1162 
 116   0.0000       0.080536         2.1915 
 117   0.0000       0.082953         2.2573 
 118   0.0000       0.086225         2.3463 
 119   0.0000       0.087871         2.3911 
 120   0.0000       0.091396         2.4870 
 121   0.0000       0.093454         2.5430 
 122   0.0000       0.094661         2.5759 
 123   0.0000       0.098902         2.6913 
 124   0.0000       0.099819         2.7162 
 125   0.0000       0.102167         2.7801 
 126   0.0000       0.106123         2.8878 
 127   0.0000       0.106509         2.8983 
 128   0.0000       0.108161         2.9432 
 129   0.0000       0.113189         3.0800 
 130   0.0000       0.115547         3.1442 
 131   0.0000       0.116659         3.1745 
 132   0.0000       0.120506         3.2791 
 133   0.0000       0.121343         3.3019 
 134   0.0000       0.122500         3.3334 
 135   0.0000       0.124218         3.3801 
 136   0.0000       0.126477         3.4416 
 137   0.0000       0.129478         3.5233 
 138   0.0000       0.131386         3.5752 
 139   0.0000       0.136501         3.7144 
 140   0.0000       0.139084         3.7847 
 141   0.0000       0.140777         3.8307 
 142   0.0000       0.141183         3.8418 
 143   0.0000       0.144942         3.9441 
 144   0.0000       0.147927         4.0253 
 145   0.0000       0.148890         4.0515 
 146   0.0000       0.150927         4.1069 
 147   0.0000       0.155013         4.2181 
 148   0.0000       0.157084         4.2745 
 149   0.0000       0.157793         4.2938 
 150   0.0000       0.162561         4.4235 
 151   0.0000       0.165539         4.5045 
 152   0.0000       0.167661         4.5623 
 153   0.0000       0.169644         4.6162 
 154   0.0000       0.171115         4.6563 
 155   0.0000       0.172390         4.6910 
 156   0.0000       0.177698         4.8354 
 157   0.0000       0.180868         4.9217 
 158   0.0000       0.182171         4.9571 
 159   0.0000       0.183886         5.0038 
 160   0.0000       0.184702         5.0260 
 161   0.0000       0.191733         5.2173 
 162   0.0000       0.192017         5.2250 
 163   0.0000       0.196765         5.3543 
 164   0.0000       0.199549         5.4300 
 165   0.0000       0.200737         5.4623 
 166   0.0000       0.203595         5.5401 
 167   0.0000       0.206347         5.6150 
 168   0.0000       0.207487         5.6460 
 169   0.0000       0.209996         5.7143 
 170   0.0000       0.211559         5.7568 
 171   0.0000       0.213066         5.7978 
 172   0.0000       0.216455         5.8900 
 173   0.0000       0.217862         5.9283 
 174   0.0000       0.220717         6.0060 
 175   0.0000       0.222662         6.0589 
 176   0.0000       0.224554         6.1104 
 177   0.0000       0.226878         6.1737 
 178   0.0000       0.231640         6.3033 
 179   0.0000       0.233151         6.3444 
 180   0.0000       0.233491         6.3536 
 181   0.0000       0.237016         6.4495 
 182   0.0000       0.239054         6.5050 
 183   0.0000       0.241980         6.5846 
 184   0.0000       0.242435         6.5970 
 185   0.0000       0.242805         6.6071 
 186   0.0000       0.245764         6.6876 
 187   0.0000       0.246280         6.7016 
 188   0.0000       0.248296         6.7565 
 189   0.0000       0.250675         6.8212 
 190   0.0000       0.253344         6.8938 
 191   0.0000       0.254819         6.9340 
 192   0.0000       0.259207         7.0534 
 193   0.0000       0.260303         7.0832 
 194   0.0000       0.261498         7.1157 
 195   0.0000       0.263592         7.1727 
 196   0.0000       0.266562         7.2535 
 197   0.0000       0.268388         7.3032 
 198   0.0000       0.271959         7.4004 
 199   0.0000       0.274069         7.4578 
 200   0.0000       0.277723         7.5572 
 201   0.0000       0.278478         7.5778 
 202   0.0000       0.279696         7.6109 
 203   0.0000       0.283316         7.7094 
 204   0.0000       0.284277         7.7356 
 205   0.0000       0.287628         7.8267 
 206   0.0000       0.289082         7.8663 
 207   0.0000       0.291156         7.9227 
 208   0.0000       0.293190         7.9781 
 209   0.0000       0.294052         8.0016 
 210   0.0000       0.297468         8.0945 
 211   0.0000       0.298861         8.1324 
 212   0.0000       0.301447         8.2028 
 213   0.0000       0.302987         8.2447 
 214   0.0000       0.304220         8.2783 
 215   0.0000       0.307623         8.3708 
 216   0.0000       0.312595         8.5062 
 217   0.0000       0.314946         8.5701 
 218   0.0000       0.318091         8.6557 
 219   0.0000       0.321399         8.7457 
 220   0.0000       0.327281         8.9058 
 221   0.0000       0.328152         8.9295 
 222   0.0000       0.331442         9.0190 
 223   0.0000       0.333136         9.0651 
 224   0.0000       0.335824         9.1382 
 225   0.0000       0.336885         9.1671 
 226   0.0000       0.340721         9.2715 
 227   0.0000       0.341812         9.3012 
 228   0.0000       0.343365         9.3434 
 229   0.0000       0.345375         9.3981 
 230   0.0000       0.349151         9.5009 
 231   0.0000       0.350400         9.5349 
 232   0.0000       0.352172         9.5831 
 233   0.0000       0.354612         9.6495 
 234   0.0000       0.358052         9.7431 
 235   0.0000       0.360030         9.7969 
 236   0.0000       0.362197         9.8559 
 237   0.0000       0.365476         9.9451 
 238   0.0000       0.366893         9.9837 
 239   0.0000       0.368946        10.0395 
 240   0.0000       0.372471        10.1355 
 241   0.0000       0.376369        10.2415 
 242   0.0000       0.377881        10.2827 
 243   0.0000       0.380905        10.3650 
 244   0.0000       0.382211        10.4005 
 245   0.0000       0.384519        10.4633 
 246   0.0000       0.387642        10.5483 
 247   0.0000       0.393707        10.7133 
 248   0.0000       0.393963        10.7203 
 249   0.0000       0.399981        10.8840 
 250   0.0000       0.401507        10.9256 
 251   0.0000       0.402095        10.9416 
 252   0.0000       0.405959        11.0467 
 253   0.0000       0.409020        11.1300 
 254   0.0000       0.413000        11.2383 
 255   0.0000       0.414357        11.2752 
 256   0.0000       0.415973        11.3192 
 257   0.0000       0.419749        11.4220 
 258   0.0000       0.421669        11.4742 
 259   0.0000       0.425080        11.5670 
 260   0.0000       0.426602        11.6084 
 261   0.0000       0.429613        11.6904 
 262   0.0000       0.430900        11.7254 
 263   0.0000       0.432049        11.7567 
 264   0.0000       0.435493        11.8504 
 265   0.0000       0.439714        11.9652 
 266   0.0000       0.439931        11.9711 
 267   0.0000       0.441724        12.0199 
 268   0.0000       0.443080        12.0568 
 269   0.0000       0.448347        12.2002 
 270   0.0000       0.448715        12.2102 
 271   0.0000       0.450924        12.2703 
 272   0.0000       0.453676        12.3452 
 273   0.0000       0.455931        12.4065 
 274   0.0000       0.458274        12.4703 
 275   0.0000       0.459716        12.5095 
 276   0.0000       0.463570        12.6144 
 277   0.0000       0.465230        12.6595 
 278   0.0000       0.467996        12.7348 
 279   0.0000       0.469758        12.7828 
 280   0.0000       0.470076        12.7914 
 281   0.0000       0.473382        12.8814 
 282   0.0000       0.475288        12.9333 
 283   0.0000       0.475723        12.9451 
 284   0.0000       0.479284        13.0420 
 285   0.0000       0.480590        13.0775 
 286   0.0000       0.482086        13.1182 
 287   0.0000       0.485542        13.2123 
 288   0.0000       0.487962        13.2781 
 289   0.0000       0.490332        13.3426 
 290   0.0000       0.492779        13.4092 
 291   0.0000       0.495829        13.4922 
 292   0.0000       0.496408        13.5080 
 293   0.0000       0.499695        13.5974 
 294   0.0000       0.502714        13.6796 
 295   0.0000       0.503158        13.6916 
 296   0.0000       0.504788        13.7360 
 297   0.0000       0.506777        13.7901 
 298   0.0000       0.512593        13.9484 
 299   0.0000       0.515767        14.0347 
 300   0.0000       0.518561        14.1108 
 301   0.0000       0.521506        14.1909 
 302   0.0000       0.525071        14.2879 
 303   0.0000       0.525657        14.3039 
 304   0.0000       0.528324        14.3764 
 305   0.0000       0.528623        14.3846 
 306   0.0000       0.533439        14.5156 
 307   0.0000       0.536408        14.5964 
 308   0.0000       0.538988        14.6666 
 309   0.0000       0.540256        14.7011 
 310   0.0000       0.542636        14.7659 
 311   0.0000       0.544822        14.8254 
 312   0.0000       0.548559        14.9271 
 313   0.0000       0.549949        14.9649 
 314   0.0000       0.551630        15.0106 
 315   0.0000       0.556103        15.1323 
 316   0.0000       0.557789        15.1782 
 317   0.0000       0.558804        15.2058 
 318   0.0000       0.564059        15.3488 
 319   0.0000       0.567028        15.4296 
 320   0.0000       0.569567        15.4987 
 321   0.0000       0.573957        15.6182 
 322   0.0000       0.574758        15.6400 
 323   0.0000       0.578072        15.7301 
 324   0.0000       0.580777        15.8037 
 325   0.0000       0.582365        15.8470 
 326   0.0000       0.586293        15.9538 
 327   0.0000       0.588743        16.0205 
 328   0.0000       0.590519        16.0688 
 329   0.0000       0.593664        16.1544 
 330   0.0000       0.597991        16.2721 
 331   0.0000       0.600546        16.3417 
 332   0.0000       0.604405        16.4467 
 333   0.0000       0.605527        16.4772 
 334   0.0000       0.609302        16.5799 
 335   0.0000       0.615457        16.7474 
 336   0.0000       0.618903        16.8412 
 337   0.0000       0.619307        16.8522 
 338   0.0000       0.623774        16.9737 
 339   0.0000       0.625928        17.0324 
 340   0.0000       0.628900        17.1132 
 341   0.0000       0.633593        17.2409 
 342   0.0000       0.636800        17.3282 
 343   0.0000       0.637294        17.3417 
 344   0.0000       0.640928        17.4405 
 345   0.0000       0.645025        17.5520 
 346   0.0000       0.648808        17.6550 
 347   0.0000       0.650578        17.7031 
 348   0.0000       0.654721        17.8159 
 349   0.0000       0.657874        17.9017 
 350   0.0000       0.664515        18.0824 
 351   0.0000       0.665799        18.1173 
 352   0.0000       0.672476        18.2990 
 353   0.0000       0.672897        18.3104 
 354   0.0000       0.674607        18.3570 
 355   0.0000       0.680355        18.5134 
 356   0.0000       0.683598        18.6017 
 357   0.0000       0.686732        18.6869 
 358   0.0000       0.687611        18.7109 
 359   0.0000       0.690615        18.7926 
 360   0.0000       0.696179        18.9440 
 361   0.0000       0.697478        18.9793 
 362   0.0000       0.704667        19.1750 
 363   0.0000       0.708833        19.2883 
 364   0.0000       0.711297        19.3554 
 365   0.0000       0.712795        19.3961 
 366   0.0000       0.719738        19.5851 
 367   0.0000       0.722480        19.6597 
 368   0.0000       0.724665        19.7191 
 369   0.0000       0.727757        19.8033 
 370   0.0000       0.732393        19.9294 
 371   0.0000       0.735309        20.0088 
 372   0.0000       0.741330        20.1726 
 373   0.0000       0.743705        20.2372 
 374   0.0000       0.748081        20.3563 
 375   0.0000       0.752820        20.4853 
 376   0.0000       0.755154        20.5488 
 377   0.0000       0.755736        20.5646 
 378   0.0000       0.757446        20.6112 
 379   0.0000       0.763286        20.7701 
 380   0.0000       0.766185        20.8489 
 381   0.0000       0.770484        20.9659 
 382   0.0000       0.774339        21.0708 
 383   0.0000       0.779821        21.2200 
 384   0.0000       0.782280        21.2869 
 385   0.0000       0.783478        21.3195 
 386   0.0000       0.785741        21.3811 
 387   0.0000       0.787723        21.4350 
 388   0.0000       0.790460        21.5095 
 389   0.0000       0.793330        21.5876 
 390   0.0000       0.795490        21.6464 
 391   0.0000       0.799599        21.7582 
 392   0.0000       0.804095        21.8805 
 393   0.0000       0.807173        21.9643 
 394   0.0000       0.809394        22.0247 
 395   0.0000       0.810296        22.0493 
 396   0.0000       0.816276        22.2120 
 397   0.0000       0.818252        22.2658 
 398   0.0000       0.821448        22.3527 
 399   0.0000       0.825825        22.4718 
 400   0.0000       0.826478        22.4896 
 401   0.0000       0.829554        22.5733 
 402   0.0000       0.832205        22.6455 
 403   0.0000       0.835068        22.7233 
 404   0.0000       0.836328        22.7576 
 405   0.0000       0.841483        22.8979 
 406   0.0000       0.847662        23.0661 
 407   0.0000       0.850010        23.1299 
 408   0.0000       0.852508        23.1979 
 409   0.0000       0.852822        23.2065 
 410   0.0000       0.857633        23.3374 
 411   0.0000       0.860618        23.4186 
 412   0.0000       0.863144        23.4873 
 413   0.0000       0.865824        23.5603 
 414   0.0000       0.868538        23.6341 
 415   0.0000       0.871441        23.7131 
 416   0.0000       0.874423        23.7943 
 417   0.0000       0.878309        23.9000 
 418   0.0000       0.881593        23.9894 
 419   0.0000       0.882499        24.0140 
 420   0.0000       0.886157        24.1136 
 421   0.0000       0.888204        24.1692 
 422   0.0000       0.890469        24.2309 
 423   0.0000       0.894245        24.3337 
 424   0.0000       0.895957        24.3802 
 425   0.0000       0.903518        24.5860 
 426   0.0000       0.905679        24.6448 
 427   0.0000       0.908468        24.7207 
 428   0.0000       0.910799        24.7841 
 429   0.0000       0.912699        24.8358 
 430   0.0000       0.916244        24.9323 
 431   0.0000       0.917850        24.9760 
 432   0.0000       0.923641        25.1336 
 433   0.0000       0.924239        25.1498 
 434   0.0000       0.928424        25.2637 
 435   0.0000       0.929711        25.2987 
 436   0.0000       0.933066        25.3900 
 437   0.0000       0.937211        25.5028 
 438   0.0000       0.938695        25.5432 
 439   0.0000       0.939272        25.5589 
 440   0.0000       0.942549        25.6481 
 441   0.0000       0.948308        25.8048 
 442   0.0000       0.951333        25.8871 
 443   0.0000       0.953288        25.9403 
 444   0.0000       0.954934        25.9851 
 445   0.0000       0.958536        26.0831 
 446   0.0000       0.959123        26.0991 
 447   0.0000       0.963562        26.2199 
 448   0.0000       0.966444        26.2983 
 449   0.0000       0.971294        26.4302 
 450   0.0000       0.972644        26.4670 
 451   0.0000       0.974664        26.5220 
 452   0.0000       0.979233        26.6463 
 453   0.0000       0.981819        26.7167 
 454   0.0000       0.984979        26.8026 
 455   0.0000       0.987250        26.8644 
 456   0.0000       0.988974        26.9113 
 457   0.0000       0.991926        26.9917 
 458   0.0000       0.993078        27.0230 
 459   0.0000       0.996447        27.1147 
 460   0.0000       0.998352        27.1665 
 461   0.0000       1.004936        27.3457 
 462   0.0000       1.006484        27.3878 
 463   0.0000       1.008950        27.4549 
 464   0.0000       1.011500        27.5243 
 465   0.0000       1.015000        27.6196 
 466   0.0000       1.015761        27.6403 
 467   0.0000       1.021314        27.7914 
 468   0.0000       1.023698        27.8562 
 469   0.0000       1.026919        27.9439 
 470   0.0000       1.028476        27.9863 
 471   0.0000       1.029026        28.0012 
 472   0.0000       1.031224        28.0610 
 473   0.0000       1.034591        28.1527 
 474   0.0000       1.035817        28.1860 
 475   0.0000       1.039505        28.2864 
 476   0.0000       1.045467        28.4486 
 477   0.0000       1.046699        28.4821 
 478   0.0000       1.052602        28.6428 
 479   0.0000       1.054795        28.7024 
 480   0.0000       1.057134        28.7661 
 481   0.0000       1.058715        28.8091 
 482   0.0000       1.063547        28.9406 
 483   0.0000       1.066268        29.0146 
 484   0.0000       1.067810        29.0566 
 485   0.0000       1.069672        29.1073 
 486   0.0000       1.069986        29.1158 
 487   0.0000       1.075081        29.2544 
 488   0.0000       1.077756        29.3272 
 489   0.0000       1.082589        29.4587 
 490   0.0000       1.084075        29.4992 
 491   0.0000       1.084567        29.5126 
 492   0.0000       1.089258        29.6402 
 493   0.0000       1.091371        29.6977 
 494   0.0000       1.096073        29.8257 
 495   0.0000       1.100769        29.9534 
 496   0.0000       1.104181        30.0463 
 497   0.0000       1.106788        30.1172 
 498   0.0000       1.107635        30.1403 
 499   0.0000       1.111558        30.2470 
 500   0.0000       1.112607        30.2756 
 501   0.0000       1.116965        30.3942 
 502   0.0000       1.118546        30.4372 
 503   0.0000       1.122282        30.5388 
 504   0.0000       1.124466        30.5983 
 505   0.0000       1.127493        30.6806 
 506   0.0000       1.131517        30.7901 
 507   0.0000       1.137198        30.9447 
 508   0.0000       1.139214        30.9996 
 509   0.0000       1.140864        31.0445 
 510   0.0000       1.143462        31.1152 
 511   0.0000       1.147123        31.2148 
 512   0.0000       1.148913        31.2635 
 513   0.0000       1.151592        31.3364 
 514   0.0000       1.155031        31.4300 
 515   0.0000       1.156205        31.4619 
 516   0.0000       1.159616        31.5548 
 517   0.0000       1.161219        31.5984 
 518   0.0000       1.163959        31.6729 
 519   0.0000       1.166449        31.7407 
 520   0.0000       1.174181        31.9511 
 521   0.0000       1.175144        31.9773 
 522   0.0000       1.175797        31.9951 
 523   0.0000       1.184355        32.2279 
 524   0.0000       1.186246        32.2794 
 525   0.0000       1.190683        32.4001 
 526   0.0000       1.193765        32.4840 
 527   0.0000       1.196867        32.5684 
 528   0.0000       1.200765        32.6745 
 529   0.0000       1.203276        32.7428 
 530   0.0000       1.207098        32.8468 
 531   0.0000       1.209860        32.9220 
 532   0.0000       1.213335        33.0165 
 533   0.0000       1.214360        33.0444 
 534   0.0000       1.216883        33.1131 
 535   0.0000       1.221291        33.2330 
 536   0.0000       1.224304        33.3150 
 537   0.0000       1.224642        33.3242 
 538   0.0000       1.226193        33.3664 
 539   0.0000       1.231387        33.5077 
 540   0.0000       1.235204        33.6116 
 541   0.0000       1.239995        33.7420 
 542   0.0000       1.245024        33.8788 
 543   0.0000       1.247006        33.9327 
 544   0.0000       1.249902        34.0116 
 545   0.0000       1.255065        34.1520 
 546   0.0000       1.257410        34.2159 
 547   0.0000       1.261576        34.3292 
 548   0.0000       1.262684        34.3594 
 549   0.0000       1.270651        34.5762 
 550   0.0000       1.272190        34.6181 
 551   0.0000       1.274457        34.6797 
 552   0.0000       1.279377        34.8136 
 553   0.0000       1.282849        34.9081 
 554   0.0000       1.286281        35.0015 
 555   0.0000       1.290514        35.1167 
 556   0.0000       1.293380        35.1947 
 557   0.0000       1.297131        35.2967 
 558   0.0000       1.298233        35.3267 
 559   0.0000       1.301965        35.4283 
 560   0.0000       1.305310        35.5193 
 561   0.0000       1.308819        35.6148 
 562   0.0000       1.314430        35.7675 
 563   0.0000       1.320032        35.9199 
 564   0.0000       1.321156        35.9505 
 565   0.0000       1.323341        36.0100 
 566   0.0000       1.327963        36.1357 
 567   0.0000       1.330264        36.1983 
 568   0.0000       1.336854        36.3776 
 569   0.0000       1.340116        36.4664 
 570   0.0000       1.343378        36.5552 
 571   0.0000       1.345793        36.6209 
 572   0.0000       1.348435        36.6928 
 573   0.0000       1.358016        36.9535 
 574   0.0000       1.359549        36.9952 
 575   0.0000       1.363463        37.1017 
 576   0.0000       1.366025        37.1714 
 577   0.0000       1.370990        37.3065 
 578   0.0000       1.372448        37.3462 
 579   0.0000       1.377049        37.4714 
 580   0.0000       1.378252        37.5041 
 581   0.0000       1.384015        37.6610 
 582   0.0000       1.390844        37.8468 
 583   0.0000       1.393316        37.9140 
 584   0.0000       1.396198        37.9925 
 585   0.0000       1.406958        38.2853 
 586   0.0000       1.408688        38.3324 
 587   0.0000       1.411266        38.4025 
 588   0.0000       1.411681        38.4138 
 589   0.0000       1.417020        38.5591 
 590   0.0000       1.421561        38.6826 
 591   0.0000       1.426554        38.8185 
 592   0.0000       1.427196        38.8360 
 593   0.0000       1.429598        38.9013 
 594   0.0000       1.436644        39.0931 
 595   0.0000       1.438798        39.1517 
 596   0.0000       1.444307        39.3016 
 597   0.0000       1.453003        39.5382 
 598   0.0000       1.457319        39.6557 
 599   0.0000       1.459568        39.7169 
 600   0.0000       1.465133        39.8683 
 601   0.0000       1.470352        40.0103 
 602   0.0000       1.472456        40.0676 
 603   0.0000       1.475872        40.1605 
 604   0.0000       1.481755        40.3206 
 605   0.0000       1.485623        40.4259 
 606   0.0000       1.489697        40.5367 
 607   0.0000       1.493856        40.6499 
 608   0.0000       1.496112        40.7113 
 609   0.0000       1.499586        40.8058 
 610   0.0000       1.501894        40.8686 
 611   0.0000       1.506213        40.9861 
 612   0.0000       1.511424        41.1279 
 613   0.0000       1.518828        41.3294 
 614   0.0000       1.524037        41.4711 
 615   0.0000       1.524756        41.4907 
 616   0.0000       1.528127        41.5825 
 617   0.0000       1.530976        41.6600 
 618   0.0000       1.533493        41.7285 
 619   0.0000       1.534636        41.7596 
 620   0.0000       1.538813        41.8732 
 621   0.0000       1.542998        41.9871 
 622   0.0000       1.549003        42.1505 
 623   0.0000       1.551183        42.2098 
 624   0.0000       1.552374        42.2422 
 625   0.0000       1.558850        42.4185 
 626   0.0000       1.561483        42.4901 
 627   0.0000       1.568947        42.6932 
 628   0.0000       1.572678        42.7947 
 629   0.0000       1.574562        42.8460 
 630   0.0000       1.575091        42.8604 
 631   0.0000       1.579424        42.9783 
 632   0.0000       1.584482        43.1159 
 633   0.0000       1.590483        43.2792 
 634   0.0000       1.595852        43.4253 
 635   0.0000       1.596619        43.4462 
 636   0.0000       1.601702        43.5845 
 637   0.0000       1.606449        43.7137 
 638   0.0000       1.606923        43.7266 
 639   0.0000       1.612709        43.8841 
 640   0.0000       1.620227        44.0886 
 641   0.0000       1.626193        44.2510 
 642   0.0000       1.627397        44.2837 
 643   0.0000       1.634425        44.4750 
 644   0.0000       1.634818        44.4856 
 645   0.0000       1.639120        44.6027 
 646   0.0000       1.643723        44.7280 
 647   0.0000       1.647538        44.8318 
 648   0.0000       1.652307        44.9616 
 649   0.0000       1.658986        45.1433 
 650   0.0000       1.660143        45.1748 
 651   0.0000       1.666265        45.3414 
 652   0.0000       1.669011        45.4161 
 653   0.0000       1.671704        45.4894 
 654   0.0000       1.672782        45.5187 
 655   0.0000       1.678403        45.6717 
 656   0.0000       1.680526        45.7294 
 657   0.0000       1.687475        45.9185 
 658   0.0000       1.689374        45.9702 
 659   0.0000       1.698729        46.2248 
 660   0.0000       1.702751        46.3342 
 661   0.0000       1.704001        46.3682 
 662   0.0000       1.711059        46.5603 
[...]
      pz      :     0.739260  p :     2.212653
      px      :     0.727290
      py      :     0.746103
      dz2     :     0.080230  d :     0.647195
      dxz     :     0.146880
      dyz     :     0.181068
      dx2y2   :     0.074782
      dxy     :     0.164235
      f0      :     0.022288  f :     0.264414
      f+1     :     0.049046
      f-1     :     0.033181
      f+2     :     0.040280
      f-2     :     0.044147
      f+3     :     0.044380
      f-3     :     0.031090
 25 H s       :     0.682563  s :     0.682563
      pz      :     0.118305  p :     0.282011
      px      :     0.074541
      py      :     0.089164
      dz2     :     0.058980  d :     0.201850
      dxz     :     0.042857
      dyz     :     0.052327
      dx2y2   :     0.024433
      dxy     :     0.023254
 26 H s       :     0.665790  s :     0.665790
      pz      :     0.092457  p :     0.293288
      px      :     0.081886
      py      :     0.118945
      dz2     :     0.046174  d :     0.207892
      dxz     :     0.018579
      dyz     :     0.047894
      dx2y2   :     0.047207
      dxy     :     0.048038
 27 H s       :     0.651686  s :     0.651686
      pz      :     0.100195  p :     0.307719
      px      :     0.104357
      py      :     0.103168
      dz2     :     0.045301  d :     0.224894
      dxz     :     0.037610
      dyz     :     0.047706
      dx2y2   :     0.054232
      dxy     :     0.040044
 28 H s       :     0.657702  s :     0.657702
      pz      :     0.095671  p :     0.298519
      px      :     0.093107
      py      :     0.109741
      dz2     :     0.039079  d :     0.217696
      dxz     :     0.030928
      dyz     :     0.046754
      dx2y2   :     0.057284
      dxy     :     0.043651
 29 H s       :     0.635872  s :     0.635872
      pz      :     0.092719  p :     0.310863
      px      :     0.106428
      py      :     0.111715
      dz2     :     0.037215  d :     0.231605
      dxz     :     0.035268
      dyz     :     0.049195
      dx2y2   :     0.063477
      dxy     :     0.046450
 30 H s       :     0.562882  s :     0.562882
      pz      :     0.174953  p :     0.511531
      px      :     0.134901
      py      :     0.201678
      dz2     :     0.075510  d :     0.373204
      dxz     :     0.046891
      dyz     :     0.084383
      dx2y2   :     0.094370
      dxy     :     0.072050
 31 H s       :     0.612387  s :     0.612387
      pz      :     0.096796  p :     0.290470
      px      :     0.105241
      py      :     0.088433
      dz2     :     0.045119  d :     0.226889
      dxz     :     0.046408
      dyz     :     0.049220
      dx2y2   :     0.036228
      dxy     :     0.049914
 32 H s       :     0.606704  s :     0.606704
      pz      :     0.093356  p :     0.304264
      px      :     0.114980
      py      :     0.095927
      dz2     :     0.041536  d :     0.245308
      dxz     :     0.052208
      dyz     :     0.048643
      dx2y2   :     0.042768
      dxy     :     0.060153
 33 H s       :     0.622731  s :     0.622731
      pz      :     0.102057  p :     0.313625
      px      :     0.101070
      py      :     0.110498
      dz2     :     0.045614  d :     0.233972
      dxz     :     0.042259
      dyz     :     0.052376
      dx2y2   :     0.039167
      dxy     :     0.054555
 34 H s       :     0.629741  s :     0.629741
      pz      :     0.113337  p :     0.295640
      px      :     0.092564
      py      :     0.089740
      dz2     :     0.043590  d :     0.218327
      dxz     :     0.051250
      dyz     :     0.051639
      dx2y2   :     0.033186
      dxy     :     0.038661
 35 H s       :     0.632181  s :     0.632181
      pz      :     0.099871  p :     0.301375
      px      :     0.102214
      py      :     0.099289
      dz2     :     0.040472  d :     0.227111
      dxz     :     0.052102
      dyz     :     0.041769
      dx2y2   :     0.040520
      dxy     :     0.052248
 36 H s       :     0.632420  s :     0.632420
      pz      :     0.088778  p :     0.302375
      px      :     0.101004
      py      :     0.112593
      dz2     :     0.027640  d :     0.228036
      dxz     :     0.042729
      dyz     :     0.051437
      dx2y2   :     0.051690
      dxy     :     0.054541
 37 H s       :     0.634141  s :     0.634141
      pz      :     0.106178  p :     0.302620
      px      :     0.091800
      py      :     0.104642
      dz2     :     0.041505  d :     0.227109
      dxz     :     0.049341
      dyz     :     0.050096
      dx2y2   :     0.042369
      dxy     :     0.043798
 38 H s       :     0.633723  s :     0.633723
      pz      :     0.110748  p :     0.296435
      px      :     0.092395
      py      :     0.093292
      dz2     :     0.052461  d :     0.215927
      dxz     :     0.052153
      dyz     :     0.044266
      dx2y2   :     0.022007
      dxy     :     0.045039


                      *****************************
                      * MAYER POPULATION ANALYSIS *
                      *****************************

  NA   - Mulliken gross atomic population
  ZA   - Total nuclear charge
  QA   - Mulliken gross atomic charge
  VA   - Mayer's total valence
  BVA  - Mayer's bonded valence
  FA   - Mayer's free valence

  ATOM       NA         ZA         QA         VA         BVA        FA
  0 C      5.5526     6.0000     0.4474     2.9641     2.9641     0.0000
  1 S     13.8314    16.0000     2.1686     4.4517     4.4517     0.0000
  2 O      8.9176     8.0000    -0.9176     1.5456     1.5456    -0.0000
  3 O      8.9400     8.0000    -0.9400     1.5625     1.5625    -0.0000
  4 N      7.6047     7.0000    -0.6047     3.0362     3.0362    -0.0000
  5 H      0.8567     1.0000     0.1433     1.0715     1.0715    -0.0000
  6 H      0.8505     1.0000     0.1495     1.0823     1.0823     0.0000
  7 O      8.6272     8.0000    -0.6272     1.7309     1.7309    -0.0000
  8 C      6.7080     6.0000    -0.7080     2.6967     2.6967    -0.0000
  9 C      5.4872     6.0000     0.5128     3.1892     3.1892     0.0000
 10 C      6.9043     6.0000    -0.9043     3.3069     3.3069    -0.0000
 11 S     13.6935    16.0000     2.3065     3.2616     3.2616    -0.0000
 12 C      5.1758     6.0000     0.8242     3.0069     3.0069    -0.0000
 13 O      9.0951     8.0000    -1.0951     1.0247     1.0247    -0.0000
 14 O      9.1107     8.0000    -1.1107     1.1469     1.1469    -0.0000
 15 C      6.4826     6.0000    -0.4826     2.6360     2.6360    -0.0000
 16 C      6.9616     6.0000    -0.9616     2.6706     2.6706    -0.0000
 17 C      5.6948     6.0000     0.3052     3.8133     3.8133     0.0000
 18 C      4.9143     6.0000     1.0857     2.3427     2.3427    -0.0000
 19 C      6.6800     6.0000    -0.6800     2.0867     2.0867    -0.0000
 20 O      8.7981     8.0000    -0.7981     1.5440     1.5440    -0.0000
 21 C      6.4713     6.0000    -0.4713     3.7017     3.7017     0.0000
 22 N      7.1652     7.0000    -0.1652     2.6796     2.6796     0.0000
 23 C      7.1142     6.0000    -1.1142     3.6248     3.6248    -0.0000
 24 C      7.1301     6.0000    -1.1301     3.9275     3.9275    -0.0000
 25 H      0.2913     1.0000     0.7087     0.4108     0.4108     0.0000
 26 H      0.6640     1.0000     0.3360     1.0220     1.0220    -0.0000
 27 H      0.6173     1.0000     0.3827     0.8385     0.8385    -0.0000
 28 H      0.3895     1.0000     0.6105     0.4886     0.4886    -0.0000
 29 H      0.9961     1.0000     0.0039     1.3625     1.3625    -0.0000
 30 H      0.8606     1.0000     0.1394     1.0688     1.0688    -0.0000
 31 H      0.7739     1.0000     0.2261     0.8900     0.8900     0.0000
 32 H      0.6683     1.0000     0.3317     0.8741     0.8741     0.0000
 33 H      0.5241     1.0000     0.4759     0.7710     0.7710     0.0000
 34 H      0.6639     1.0000     0.3361     0.9431     0.9431    -0.0000
 35 H      0.7407     1.0000     0.2593     1.0714     1.0714    -0.0000
 36 H      0.6917     1.0000     0.3083     0.9980     0.9980     0.0000
 37 H      0.6545     1.0000     0.3455     0.9495     0.9495    -0.0000
 38 H      0.6965     1.0000     0.3035     0.9940     0.9940    -0.0000

  Mayer bond orders larger than 0.100000
B(  0-C ,  1-S ) :   0.8316 B(  0-C ,  7-O ) :   0.7205 B(  0-C ,  8-C ) :   0.1800 
B(  0-C ,  9-C ) :  -0.1953 B(  0-C , 10-C ) :   1.3371 B(  1-S ,  2-O ) :   1.3055 
B(  1-S ,  3-O ) :   1.3248 B(  1-S ,  4-N ) :   0.8620 B(  4-N ,  5-H ) :   0.9621 
B(  4-N ,  6-H ) :   0.9617 B(  7-O ,  8-C ) :   1.0738 B(  8-C ,  9-C ) :   0.8327 
B(  8-C , 10-C ) :   0.2770 B(  8-C , 11-S ) :  -0.1266 B(  8-C , 25-H ) :   0.3665 
B(  9-C , 10-C ) :   0.7243 B(  9-C , 11-S ) :   1.3000 B(  9-C , 12-C ) :   0.2866 
B(  9-C , 13-O ) :   0.1735 B(  9-C , 14-O ) :   0.1091 B( 10-C , 26-H ) :   1.0768 
B( 11-S , 12-C ) :   0.8754 B( 11-S , 13-O ) :   0.6521 B( 11-S , 14-O ) :   0.7933 
B( 11-S , 15-C ) :  -0.1011 B( 12-C , 13-O ) :   0.1471 B( 12-C , 14-O ) :   0.2661 
B( 12-C , 15-C ) :   0.8045 B( 12-C , 18-C ) :   0.2383 B( 12-C , 19-C ) :   0.4560 
B( 12-C , 29-H ) :  -0.1496 B( 13-O , 16-C ) :  -0.1159 B( 14-O , 18-C ) :  -0.1137 
B( 14-O , 29-H ) :   0.1049 B( 15-C , 16-C ) :   1.0474 B( 15-C , 19-C ) :  -0.1096 
B( 15-C , 27-H ) :   0.8200 B( 16-C , 17-C ) :   1.2205 B( 16-C , 18-C ) :   0.2758 
B( 16-C , 19-C ) :  -0.2524 B( 16-C , 28-H ) :   0.4367 B( 17-C , 18-C ) :   1.6091 
B( 17-C , 19-C ) :  -0.1369 B( 17-C , 20-O ) :   0.4332 B( 17-C , 21-C ) :   0.2398 
B( 17-C , 28-H ) :   0.1533 B( 18-C , 19-C ) :   0.6279 B( 18-C , 21-C ) :   0.1699 
B( 18-C , 29-H ) :  -0.1130 B( 18-C , 31-H ) :  -0.1377 B( 19-C , 21-C ) :   0.1018 
B( 19-C , 29-H ) :   1.4292 B( 20-O , 30-H ) :   1.0547 B( 21-C , 22-N ) :   1.0985 
B( 21-C , 24-C ) :   0.1073 B( 21-C , 31-H ) :   1.0144 B( 21-C , 32-H ) :   0.9713 
B( 22-N , 23-C ) :   0.8774 B( 22-N , 24-C ) :   1.0260 B( 23-C , 33-H ) :   0.7599 
B( 23-C , 34-H ) :   0.8838 B( 23-C , 35-H ) :   1.0377 B( 24-C , 36-H ) :   0.9449 
B( 24-C , 37-H ) :   0.9055 B( 24-C , 38-H ) :   0.9122 

-------
TIMINGS
-------

Total SCF time: 0 days 0 hours 11 min 7 sec 

Total time                  ....     667.613 sec
Sum of individual times     ....     661.000 sec  ( 99.0%)

Fock matrix formation       ....     637.143 sec  ( 95.4%)
  Split-RI-J                ....      38.556 sec  (  6.1% of F)
  Chain of spheres X        ....     536.228 sec  ( 84.2% of F)
  XC integration            ....      60.034 sec  (  9.4% of F)
    Basis function eval.    ....       8.019 sec  ( 13.4% of XC)
    Density eval.           ....      27.406 sec  ( 45.7% of XC)
    XC-Functional eval.     ....       0.395 sec  (  0.7% of XC)
    XC-Potential eval.      ....      21.387 sec  ( 35.6% of XC)
Diagonalization             ....       3.268 sec  (  0.5%)
Density matrix formation    ....       0.383 sec  (  0.1%)
Population analysis         ....       0.603 sec  (  0.1%)
Initial guess               ....       4.561 sec  (  0.7%)
Orbital Transformation      ....       0.000 sec  (  0.0%)
Orbital Orthonormalization  ....       0.000 sec  (  0.0%)
DIIS solution               ....       2.815 sec  (  0.4%)
SOSCF solution              ....       2.484 sec  (  0.4%)
Grid generation             ....       9.744 sec  (  1.5%)

Maximum memory used throughout the entire SCF-calculation: 453.8 MB


           ************************************************************
           *        Program running with 8 parallel MPI-processes     *
           *              working on a common directory               *
           ************************************************************

------------------------------------------------------------------------------
                                ORCA  MP2 
------------------------------------------------------------------------------

Freezing NCore=62 chemical core electrons

   <<< Use J-auxbasis for calculation of Separable RI-J derivative contributions (Dim=1307) >>> 


-------------
RI-MP2 ENERGY
-------------
Dimension of the basis                    ... 1434
Memory devoted to MP2                     ... 5000 MB   
Data format for buffers                   ... DOUBLE
Compression type for matrix containers    ... UNCOMPRESSED
Scaling for aa/bb pairs                   ...   2.500e-01
Scaling for ab pairs                      ...   5.300e-01
Overall scaling of the MP2 energy         ...   1.000e+00
Calculating two index integrals           ... done (    0.138 sec)
Cholesky decomposition of V**-1           ... done (    1.145 sec)

-----------------
RI-TRANSFORMATION (AUX index driven)
-----------------

Dimension of the orbital-basis         ... 1434
Dimension of the aux-basis             ... 3256
Transformation of internal/external MOs...   31-  93 to   94-1433
Number Format for Storage              ... Double (8 Byte)
Integral mode                          ... Direct

First Phase: integral generation and transformation of MO indices
  Aux angular momentum 0               ... done (    2.036 sec)
  Aux angular momentum 1               ... done (    3.721 sec)
  Aux angular momentum 2               ... done (    5.002 sec)
  Aux angular momentum 3               ... done (    4.707 sec)
  Aux angular momentum 4               ... done (    2.294 sec)
Closing buffer VIA ( 2.05 GB; CompressionRatio= 1.00)
  Phase 1 completed in    18.932 sec
Second Phase: sorting and transformation of aux index

IA-Transformation
Memory available                       ... 4829 MB 
Max. # MO pairs treated in a batch     ... 8    
# of internal orbitals                 ... 63
# batches for internal orbitals        ... 1
Closing buffer IAV ( 2.05 GB; CompressionRatio= 1.00)
(ia|v) transformation done in     4.263 sec

  Phase 2 completed in     4.724 sec
RI-Integral transformation completed in    23.687 sec
Opening buffers                              ... done

Starting loop over batches of integrals:

Operator 0  - window                       ... ( 31- 93)x( 94-1433)
Operator 0  - Memory available             ...  5000 MB
Operator 0  - Memory needed per MO         ...  33.3 MB
Operator 0  - Number of orbitals per batch ... 8
Operator 0  - Number of batches            ... 1

OPERATOR  0   PASS   0:  MOs    31 ...   38 +   39 ...   46 +   47 ...   54 +   55 ...   62
                            +   63 ...   70 +   71 ...   78 +   79 ...   86 +   87 ...   93
  Reading integrals       ... ok
  Internal MO  33
  Internal MO  36
Time spent in pair loops =     6.923 sec
Deleting buffer (Ka|jb)[aa] ...done

-----------------------------------------------
 RI-MP2 CORRELATION ENERGY:     -2.259958799 Eh
-----------------------------------------------


-------
TIMINGS
-------

Total time                :  103.493 sec
Integral trafo            :   23.710 sec ( 22.9%)
I/O of integrals          :    0.191 sec (  0.2%)
K(i,j) Operators          :    5.889 sec (  5.7%)
T(i,j) pair energies      :    0.512 sec (  0.5%)
V-calculation             :    0.138 sec (  0.1%)
V**(-1/2)                 :    1.145 sec (  1.1%)
Gamma(ia|P)               :    0.000 sec (  0.0%)
Gamma-Trafo               :    0.000 sec (  0.0%)
D(virtual)                :    0.000 sec (  0.0%)
D(internal)               :    0.000 sec (  0.0%)
W(virtual)                :    0.000 sec (  0.0%)
W(internal)               :    0.000 sec (  0.0%)
L(virtual)                :    0.000 sec (  0.0%)
L(internal)               :    0.000 sec (  0.0%)
G(D)                      :    0.000 sec (  0.0%)
G(Z)                      :    0.000 sec (  0.0%)
Z-Vector Solution         :    0.000 sec (  0.0%)
3-Index Derivative        :    0.000 sec (  0.0%)
2-Index Derivative        :    0.000 sec (  0.0%)
Separable Gradient (RIJ)  :    0.000 sec (  0.0%)
Separable Gradient (COSX) :    0.000 sec (  0.0%)


---------------------------------------
MP2 TOTAL ENERGY:    -1860.177043794 Eh
---------------------------------------

Maximum memory used throughout the entire MP2-calculation: 545.3 MB


-------------------------------------------------------------------------------
                          DFT DISPERSION CORRECTION                            
                                                                               
                              DFTD3 V3.1  Rev 1                                
                          USING Becke-Johnson damping                          
-------------------------------------------------------------------------------
The DSD-PBEP86 functional is recognized
Active option DFTDOPT                   ...         4   

molecular C6(AA) [au] = 19797.873194 


            DFT-D V3
 parameters
 s6 scaling factor         :     0.4180 
 a1 scaling factor         :     0.0000 
 s8 scaling factor         :     0.0000 
 a2 scaling factor         :     5.6500 
 ad hoc parameters k1-k3   :    16.0000     1.3333    -4.0000 

 Edisp/kcal,au: -19.058605932138  -0.030371818573 
 E6   /kcal   : -19.058605932 
 E8   /kcal   :  -0.000000000 
 % E8         :   0.000000000 

-------------------------   ----------------
Dispersion correction           -0.030371819
-------------------------   ----------------


-------------------------   --------------------
FINAL SINGLE POINT ENERGY     -1860.207415612706
-------------------------   --------------------


                            ***************************************
                            *     ORCA property calculations      *
                            ***************************************


  WARNING: The energy has been calculated at the MP2 level but the densities
           used in the property calculations are still SCF densities
           MP2 response densities have not been calculated 
           use %mp2 Density relaxed end
           or  %mp2 Density unrelaxed end

                                    ---------------------
                                    Active property flags
                                    ---------------------
   (+) Dipole Moment


------------------------------------------------------------------------------
                       ORCA ELECTRIC PROPERTIES CALCULATION
------------------------------------------------------------------------------

Dipole Moment Calculation                       ... on
Quadrupole Moment Calculation                   ... off
Polarizability Calculation                      ... off
GBWName                                         ... HA.18.avtz.gbw
Electron density                                ... HA.18.avtz.scfp
The origin for moment calculation is the CENTER OF MASS  = ( 3.086042, -1.105461 -5.298587)

-------------
DIPOLE MOMENT
-------------
                                X             Y             Z
Electronic contribution:    -26.04277      21.16754       2.53435
Nuclear contribution   :     26.70706     -20.65771      -3.30674
                        -----------------------------------------
Total Dipole Moment    :      0.66430       0.50983      -0.77239
                        -----------------------------------------
Magnitude (a.u.)       :      1.13921
Magnitude (Debye)      :      2.89565



--------------------
Rotational spectrum 
--------------------
 
Rotational constants in cm-1:     0.011830     0.003546     0.003222 
Rotational constants in MHz :   354.641253   106.316505    96.602488 

 Dipole components along the rotational axes: 
x,y,z [a.u.] :    -0.582318    -0.512217    -0.834473 
x,y,z [Debye]:    -1.480135    -1.301952    -2.121063 

 

Timings for individual modules:

Sum of individual times         ...      781.104 sec (=  13.018 min)
GTO integral calculation        ...        6.615 sec (=   0.110 min)   0.8 %
SCF iterations                  ...      669.362 sec (=  11.156 min)  85.7 %
MP2 module                      ...      105.127 sec (=   1.752 min)  13.5 %
                             ****ORCA TERMINATED NORMALLY****
TOTAL RUN TIME: 0 days 0 hours 13 minutes 4 seconds 674 msec
