
                                 *****************
                                 * O   R   C   A *
                                 *****************

                                            #,                                       
                                            ###                                      
                                            ####                                     
                                            #####                                    
                                            ######                                   
                                           ########,                                 
                                     ,,################,,,,,                         
                               ,,#################################,,                 
                          ,,##########################################,,             
                       ,#########################################, ''#####,          
                    ,#############################################,,   '####,        
                  ,##################################################,,,,####,       
                ,###########''''           ''''###############################       
              ,#####''   ,,,,##########,,,,          '''####'''          '####       
            ,##' ,,,,###########################,,,                        '##       
           ' ,,###''''                  '''############,,,                           
         ,,##''                                '''############,,,,        ,,,,,,###''
      ,#''                                            '''#######################'''  
     '                                                          ''''####''''         
             ,#######,   #######,   ,#######,      ##                                
            ,#'     '#,  ##    ##  ,#'     '#,    #''#        ######   ,####,        
            ##       ##  ##   ,#'  ##            #'  '#       #        #'  '#        
            ##       ##  #######   ##           ,######,      #####,   #    #        
            '#,     ,#'  ##    ##  '#,     ,#' ,#      #,         ##   #,  ,#        
             '#######'   ##     ##  '#######'  #'      '#     #####' # '####'        



                  #######################################################
                  #                        -***-                        #
                  #          Department of theory and spectroscopy      #
                  #    Directorship and core code : Frank Neese         #
                  #        Max Planck Institute fuer Kohlenforschung    #
                  #                Kaiser Wilhelm Platz 1               #
                  #                 D-45470 Muelheim/Ruhr               #
                  #                      Germany                        #
                  #                                                     #
                  #                  All rights reserved                #
                  #                        -***-                        #
                  #######################################################


                         Program Version 5.0.3 -  RELEASE  -


 With contributions from (in alphabetic order):
   Daniel Aravena         : Magnetic Suceptibility
   Michael Atanasov       : Ab Initio Ligand Field Theory (pilot matlab implementation)
   Alexander A. Auer      : GIAO ZORA, VPT2 properties, NMR spectrum
   Ute Becker             : Parallelization
   Giovanni Bistoni       : ED, misc. LED, open-shell LED, HFLD
   Martin Brehm           : Molecular dynamics
   Dmytro Bykov           : SCF Hessian
   Vijay G. Chilkuri      : MRCI spin determinant printing, contributions to CSF-ICE
   Dipayan Datta          : RHF DLPNO-CCSD density
   Achintya Kumar Dutta   : EOM-CC, STEOM-CC
   Dmitry Ganyushin       : Spin-Orbit,Spin-Spin,Magnetic field MRCI
   Miquel Garcia          : C-PCM and meta-GGA Hessian, CC/C-PCM, Gaussian charge scheme
   Yang Guo               : DLPNO-NEVPT2, F12-NEVPT2, CIM, IAO-localization
   Andreas Hansen         : Spin unrestricted coupled pair/coupled cluster methods
   Benjamin Helmich-Paris : MC-RPA, TRAH-SCF, COSX integrals
   Lee Huntington         : MR-EOM, pCC
   Robert Izsak           : Overlap fitted RIJCOSX, COSX-SCS-MP3, EOM
   Marcus Kettner         : VPT2
   Christian Kollmar      : KDIIS, OOCD, Brueckner-CCSD(T), CCSD density, CASPT2, CASPT2-K
   Simone Kossmann        : Meta GGA functionals, TD-DFT gradient, OOMP2, MP2 Hessian
   Martin Krupicka        : Initial AUTO-CI
   Lucas Lang             : DCDCAS
   Marvin Lechner         : AUTO-CI (C++ implementation), FIC-MRCC
   Dagmar Lenk            : GEPOL surface, SMD
   Dimitrios Liakos       : Extrapolation schemes; Compound Job, initial MDCI parallelization
   Dimitrios Manganas     : Further ROCIS development; embedding schemes
   Dimitrios Pantazis     : SARC Basis sets
   Anastasios Papadopoulos: AUTO-CI, single reference methods and gradients
   Taras Petrenko         : DFT Hessian,TD-DFT gradient, ASA, ECA, R-Raman, ABS, FL, XAS/XES, NRVS
   Peter Pinski           : DLPNO-MP2, DLPNO-MP2 Gradient
   Christoph Reimann      : Effective Core Potentials
   Marius Retegan         : Local ZFS, SOC
   Christoph Riplinger    : Optimizer, TS searches, QM/MM, DLPNO-CCSD(T), (RO)-DLPNO pert. Triples
   Tobias Risthaus        : Range-separated hybrids, TD-DFT gradient, RPA, STAB
   Michael Roemelt        : Original ROCIS implementation
   Masaaki Saitow         : Open-shell DLPNO-CCSD energy and density
   Barbara Sandhoefer     : DKH picture change effects
   Avijit Sen             : IP-ROCIS
   Kantharuban Sivalingam : CASSCF convergence, NEVPT2, FIC-MRCI
   Bernardo de Souza      : ESD, SOC TD-DFT
   Georgi Stoychev        : AutoAux, RI-MP2 NMR, DLPNO-MP2 response
   Willem Van den Heuvel  : Paramagnetic NMR
   Boris Wezisla          : Elementary symmetry handling
   Frank Wennmohs         : Technical directorship


 We gratefully acknowledge several colleagues who have allowed us to
 interface, adapt or use parts of their codes:
   Stefan Grimme, W. Hujo, H. Kruse, P. Pracht,  : VdW corrections, initial TS optimization,
                  C. Bannwarth, S. Ehlert          DFT functionals, gCP, sTDA/sTD-DF
   Ed Valeev, F. Pavosevic, A. Kumar             : LibInt (2-el integral package), F12 methods
   Garnet Chan, S. Sharma, J. Yang, R. Olivares  : DMRG
   Ulf Ekstrom                                   : XCFun DFT Library
   Mihaly Kallay                                 : mrcc  (arbitrary order and MRCC methods)
   Jiri Pittner, Ondrej Demel                    : Mk-CCSD
   Frank Weinhold                                : gennbo (NPA and NBO analysis)
   Christopher J. Cramer and Donald G. Truhlar   : smd solvation model
   Lars Goerigk                                  : TD-DFT with DH, B97 family of functionals
   V. Asgeirsson, H. Jonsson                     : NEB implementation
   FAccTs GmbH                                   : IRC, NEB, NEB-TS, DLPNO-Multilevel, CI-OPT
                                                   MM, QMMM, 2- and 3-layer-ONIOM, Crystal-QMMM,
                                                   LR-CPCM, SF, NACMEs, symmetry and pop. for TD-DFT,
                                                   nearIR, NL-DFT gradient (VV10), updates on ESD,
                                                   ML-optimized integration grids
   S Lehtola, MJT Oliveira, MAL Marques          : LibXC Library
   Liviu Ungur et al                             : ANISO software


 Your calculation uses the libint2 library for the computation of 2-el integrals
 For citations please refer to: http://libint.valeyev.net

 Your ORCA version has been built with support for libXC version: 5.1.0
 For citations please refer to: https://tddft.org/programs/libxc/

 This ORCA versions uses:
   CBLAS   interface :  Fast vector & matrix operations
   LAPACKE interface :  Fast linear algebra routines
   SCALAPACK package :  Parallel linear algebra routines
   Shared memory     :  Shared parallel matrices
   BLAS/LAPACK       :  OpenBLAS 0.3.15  USE64BITINT DYNAMIC_ARCH NO_AFFINITY SkylakeX SINGLE_THREADED
        Core in use  :  SkylakeX
   Copyright (c) 2011-2014, The OpenBLAS Project


Your calculation utilizes the atom-pairwise dispersion correction
with the Becke-Johnson damping scheme (D3BJ)
Cite in your paper:
S.Grimme, S.Ehrlich, L.Goerigk, J Comput Chem, (2011), 32, 1456–1465 
S.Grimme, J.Antony, S.Ehrlich and H.Krieg, J.Chem.Phys., 132, (2010), 154104 
   

================================================================================

----- Orbital basis set information -----
Your calculation utilizes the basis: aug-cc-pVTZ 
    H, B-Ne : Obtained from the ccRepo (grant-hill.group.shef.ac.uk/ccrepo) Feb. 2017
              R. A. Kendall, T. H. Dunning, Jr., R. J. Harrison, J. Chem. Phys. 96, 6796 (1992)
         He : Obtained from the ccRepo (grant-hill.group.shef.ac.uk/ccrepo) Feb. 2017
              D. E. Woon, T. H. Dunning, Jr., J. Chem. Phys. 100, 2975 (1994)
  Li-Be, Na : Obtained from the ccRepo (grant-hill.group.shef.ac.uk/ccrepo) Feb. 2017
              B. P. Prascher, D. E. Woon, K. A. Peterson, T. H. Dunning, Jr., A. K. Wilson, Theor. Chem. Acc. 128, 69 (2011)
         Mg : Obtained from the Peterson Research Group Website (tyr0.chem.wsu.edu/~kipeters) Feb. 2017
              B. P. Prascher, D. E. Woon, K. A. Peterson, T. H. Dunning, Jr., A. K. Wilson, Theor. Chem. Acc. 128, 69 (2011)
      Al-Ar : Obtained from the ccRepo (grant-hill.group.shef.ac.uk/ccrepo) Feb. 2017
              D. E. Woon, T. H. Dunning, Jr., J. Chem. Phys. 98, 1358 (1993)
      Sc-Zn : Obtained from the ccRepo (grant-hill.group.shef.ac.uk/ccrepo) Feb. 2017
              N. B. Balabanov, K. A. Peterson, J. Chem. Phys. 123, 064107 (2005)
              N. B. Balabanov, K. A. Peterson, J. Chem. Phys. 125, 074110 (2006)
      Ga-Kr : Obtained from the ccRepo (grant-hill.group.shef.ac.uk/ccrepo) Feb. 2017
              A. K. Wilson, D. E. Woon, K. A. Peterson, T. H. Dunning, Jr., J. Chem. Phys. 110, 7667 (1999)
     Ag, Au : Obtained from the Peterson Research Group Website (tyr0.chem.wsu.edu/~kipeters) Feb. 2017
              K. A. Peterson, C. Puzzarini, Theor. Chem. Acc. 114, 283 (2005)

----- AuxJ basis set information -----
Your calculation utilizes the auxiliary basis: def2/J
   F. Weigend, Phys. Chem. Chem. Phys. 8, 1057 (2006).

----- AuxC basis set information -----
Your calculation utilizes the auxiliary basis: aug-cc-pVTZ/C 
  H-He, B-F, Al-Ar, Ga-Kr : Obtained from the EMSL Basis Set Exchange (bse.pnl.gov) Feb. 2017
                            F. Weigend, A. Kohn, C. Hattig, J. Chem. Phys. 116, 3175 (2002)
                   Be, Mg : Obtained from the TURBOMOLE 7.0 basis set library
                            C. Haettig, Phys. Chem. Chem. Phys. 7, 59 (2005)
                       Ne : Obtained from the EMSL Basis Set Exchange (bse.pnl.gov) Feb. 2017
                            C. Haettig, Phys. Chem. Chem. Phys. 7, 59 (2005)
                            F. Weigend, A. Kohn, C. Hattig, J. Chem. Phys. 116, 3175 (2002)
                    Sc-Zn : Obtained from the EMSL Basis Set Exchange (bse.pnl.gov) Feb. 2017
                            J. G. Hill, J. A. Platts, J. Chem. Phys. 128, 044104 (2008)

================================================================================
                                        WARNINGS
                       Please study these warnings very carefully!
================================================================================


WARNING: No MP2 level density has been requested!
         To caclulate MP2 level properties use
         %mp2 Density relaxed end
         or
         %mp2 Density unrelaxed end
         Otherwise for double-hybrid DFT only the energy is correct!

WARNING: There are different parametrizations of Gershom Martin's DSD-DFs
         for use with and without D3(BJ)!
         You are using the D3(BJ) parametrized version,
         consistent with the GMTKN55 benchmark (L. Goerigk et al., PCCP 2017, 19, 32184)

WARNING: The frozen-core approximation is turned on by default for 
         the MP2 part of double-hybrid DFT.

INFO   : the flag for use of the SHARK integral package has been found!

================================================================================
                                       INPUT FILE
================================================================================
NAME = HA.26.avtz.com
|  1> !PAL8
|  2> !RI-DSD-PBEP86 D3BJ aug-cc-pVTZ aug-cc-pVTZ/C TightSCF
|  3> %maxcore 5000
|  4> 
|  5> * xyz 0 1
|  6> C -0.823921632  0.5877719902 -0.6119671632
|  7> N -1.3766702625  1.6099192958 -1.1604904381
|  8> N -0.8648999441  1.8022408352 -2.3947667888
|  9> C  0.0894233239  0.9284724019 -2.8213627088
| 10> N  0.6325126923  1.0415968987 -3.9917955976
| 11> S  0.3931126279 -0.2542189735 -1.5393907196
| 12> S -1.3732512433  0.0333521345  1.0041935801
| 13> O -2.554055432 -0.7758396881  0.7993842043
| 14> O -0.1833316249 -0.4644254148  1.6607737003
| 15> N -1.8532606169  1.393999038  1.7982729709
| 16> H -2.6660792667  1.8360884847  1.3757798976
| 17> C -1.328262484  2.9100308856 -3.2163011654
| 18> H -2.0959960798  3.4320269584 -2.6476710996
| 19> H -1.735959657  2.5229416507 -4.1520277139
| 20> H -0.4917697184  3.5747383445 -3.4414840522
| 21> H -1.0920276084  2.0440058073  1.9765821871
| 22> C  1.5983158715  0.0923235203 -4.3129330622
| 23> C  2.1859679365  0.2545680524 -5.6884373188
| 24> O  1.9422887292 -0.7986555947 -3.5469738458
| 25> H  2.6268546455  1.2511699205 -5.7841988096
| 26> H  1.3909654439  0.177996703 -6.436344938
| 27> H  2.9413162992 -0.5111942508 -5.8631451186
| 28> *
| 29> 
| 30>                          ****END OF INPUT****
================================================================================

                       ****************************
                       * Single Point Calculation *
                       ****************************

---------------------------------
CARTESIAN COORDINATES (ANGSTROEM)
---------------------------------
  C     -0.823922    0.587772   -0.611967
  N     -1.376670    1.609919   -1.160490
  N     -0.864900    1.802241   -2.394767
  C      0.089423    0.928472   -2.821363
  N      0.632513    1.041597   -3.991796
  S      0.393113   -0.254219   -1.539391
  S     -1.373251    0.033352    1.004194
  O     -2.554055   -0.775840    0.799384
  O     -0.183332   -0.464425    1.660774
  N     -1.853261    1.393999    1.798273
  H     -2.666079    1.836088    1.375780
  C     -1.328262    2.910031   -3.216301
  H     -2.095996    3.432027   -2.647671
  H     -1.735960    2.522942   -4.152028
  H     -0.491770    3.574738   -3.441484
  H     -1.092028    2.044006    1.976582
  C      1.598316    0.092324   -4.312933
  C      2.185968    0.254568   -5.688437
  O      1.942289   -0.798656   -3.546974
  H      2.626855    1.251170   -5.784199
  H      1.390965    0.177997   -6.436345
  H      2.941316   -0.511194   -5.863145

----------------------------
CARTESIAN COORDINATES (A.U.)
----------------------------
  NO LB      ZA    FRAG     MASS         X           Y           Z
   0 C     6.0000    0    12.011   -1.556986    1.110728   -1.156450
   1 N     7.0000    0    14.007   -2.601530    3.042307   -2.193009
   2 N     7.0000    0    14.007   -1.634424    3.405742   -4.525453
   3 C     6.0000    0    12.011    0.168986    1.754559   -5.331603
   4 N     7.0000    0    14.007    1.195276    1.968333   -7.543400
   5 S    16.0000    0    32.060    0.742875   -0.480404   -2.909027
   6 S    16.0000    0    32.060   -2.595069    0.063026    1.897651
   7 O     8.0000    0    15.999   -4.826465   -1.466125    1.510617
   8 O     8.0000    0    15.999   -0.346447   -0.877637    3.138407
   9 N     7.0000    0    14.007   -3.502155    2.634276    3.398243
  10 H     1.0000    0     1.008   -5.038160    3.469704    2.599847
  11 C     6.0000    0    12.011   -2.510052    5.499161   -6.077928
  12 H     1.0000    0     1.008   -3.960859    6.485591   -5.003373
  13 H     1.0000    0     1.008   -3.280488    4.767669   -7.846195
  14 H     1.0000    0     1.008   -0.929310    6.755276   -6.503462
  15 H     1.0000    0     1.008   -2.063633    3.862611    3.735199
  16 C     6.0000    0    12.011    3.020379    0.174466   -8.150262
  17 C     6.0000    0    12.011    4.130881    0.481064  -10.749589
  18 O     8.0000    0    15.999    3.670394   -1.509240   -6.702809
  19 H     1.0000    0     1.008    4.964036    2.364368  -10.930552
  20 H     1.0000    0     1.008    2.628544    0.336365  -12.162929
  21 H     1.0000    0     1.008    5.558282   -0.966017  -11.079739

--------------------------------
INTERNAL COORDINATES (ANGSTROEM)
--------------------------------
 C      0   0   0     0.000000000000     0.00000000     0.00000000
 N      1   0   0     1.284987916664     0.00000000     0.00000000
 N      2   1   0     1.349938718316   109.91014651     0.00000000
 C      3   2   1     1.362419999060   117.41737878     0.19166750
 N      4   3   2     1.295243745798   121.37459814   180.01957477
 S      1   2   3     1.746492377793   117.16585726     0.28263983
 S      1   2   3     1.794747878235   119.89806000   183.42830891
 O      7   1   2     1.446041776101   107.17302138    82.10541660
 O      7   1   2     1.447338468045   105.25472789   214.44500355
 N      7   1   2     1.646915624324   105.55574635   328.28068583
 H     10   7   1     1.017161557145   113.06134016    65.41606141
 C      3   2   1     1.454930366404   120.26592013   180.39070903
 H     12   3   2     1.088684952532   107.14176911   358.78624938
 H     12   3   2     1.091622294668   109.44895459   238.64102378
 H     12   3   2     1.091908185392   109.63205135   119.16030251
 H     10   7   1     1.016749069312   113.23599192   295.02926612
 C      5   4   3     1.391770454874   116.09755096   179.79069385
 C     17   5   4     1.504549832216   114.10685486   179.22586406
 O     17   5   4     1.224277187319   123.16041144   359.25885014
 H     18  17   5     1.093968297892   109.61373868    57.76733944
 H     18  17   5     1.094192826538   109.48547388   300.36461126
 H     18  17   5     1.089709075555   109.97036971   179.17975136

---------------------------
INTERNAL COORDINATES (A.U.)
---------------------------
 C      0   0   0     0.000000000000     0.00000000     0.00000000
 N      1   0   0     2.428275247893     0.00000000     0.00000000
 N      2   1   0     2.551014475195   109.91014651     0.00000000
 C      3   2   1     2.574600677600   117.41737878     0.19166750
 N      4   3   2     2.447655956233   121.37459814   180.01957477
 S      1   2   3     3.300392289009   117.16585726     0.28263983
 S      1   2   3     3.391581969301   119.89806000   183.42830891
 O      7   1   2     2.732622935040   107.17302138    82.10541660
 O      7   1   2     2.735073327694   105.25472789   214.44500355
 N      7   1   2     3.112219495648   105.55574635   328.28068583
 H     10   7   1     1.922156776956   113.06134016    65.41606141
 C      3   2   1     2.749419936429   120.26592013   180.39070903
 H     12   3   2     2.057316406407   107.14176911   358.78624938
 H     12   3   2     2.062867178604   109.44895459   238.64102378
 H     12   3   2     2.063407433778   109.63205135   119.16030251
 H     10   7   1     1.921377287920   113.23599192   295.02926612
 C      5   4   3     2.630065000996   116.09755096   179.79069385
 C     17   5   4     2.843187137725   114.10685486   179.22586406
 O     17   5   4     2.313548596039   123.16041144   359.25885014
 H     18  17   5     2.067300482209   109.61373868    57.76733944
 H     18  17   5     2.067724779857   109.48547388   300.36461126
 H     18  17   5     2.059251718447   109.97036971   179.17975136

---------------------
BASIS SET INFORMATION
---------------------
There are 5 groups of distinct atoms

 Group   1 Type C   : 19s6p3d2f contracted to 5s4p3d2f pattern {88111/3111/111/11}
 Group   2 Type N   : 19s6p3d2f contracted to 5s4p3d2f pattern {88111/3111/111/11}
 Group   3 Type S   : 42s17p3d2f contracted to 6s5p3d2f pattern {131313111/77111/111/11}
 Group   4 Type O   : 19s6p3d2f contracted to 5s4p3d2f pattern {88111/3111/111/11}
 Group   5 Type H   : 6s3p2d contracted to 4s3p2d pattern {3111/111/11}

Atom   0C    basis set group =>   1
Atom   1N    basis set group =>   2
Atom   2N    basis set group =>   2
Atom   3C    basis set group =>   1
Atom   4N    basis set group =>   2
Atom   5S    basis set group =>   3
Atom   6S    basis set group =>   3
Atom   7O    basis set group =>   4
Atom   8O    basis set group =>   4
Atom   9N    basis set group =>   2
Atom  10H    basis set group =>   5
Atom  11C    basis set group =>   1
Atom  12H    basis set group =>   5
Atom  13H    basis set group =>   5
Atom  14H    basis set group =>   5
Atom  15H    basis set group =>   5
Atom  16C    basis set group =>   1
Atom  17C    basis set group =>   1
Atom  18O    basis set group =>   4
Atom  19H    basis set group =>   5
Atom  20H    basis set group =>   5
Atom  21H    basis set group =>   5
---------------------------------
AUXILIARY/J BASIS SET INFORMATION
---------------------------------
There are 5 groups of distinct atoms

 Group   1 Type C   : 12s5p4d2f1g contracted to 6s4p3d1f1g pattern {711111/2111/211/2/1}
 Group   2 Type N   : 12s5p4d2f1g contracted to 6s4p3d1f1g pattern {711111/2111/211/2/1}
 Group   3 Type S   : 14s5p5d2f1g contracted to 8s4p3d1f1g pattern {71111111/2111/311/2/1}
 Group   4 Type O   : 12s5p4d2f1g contracted to 6s4p3d1f1g pattern {711111/2111/211/2/1}
 Group   5 Type H   : 5s2p1d contracted to 3s1p1d pattern {311/2/1}

Atom   0C    basis set group =>   1
Atom   1N    basis set group =>   2
Atom   2N    basis set group =>   2
Atom   3C    basis set group =>   1
Atom   4N    basis set group =>   2
Atom   5S    basis set group =>   3
Atom   6S    basis set group =>   3
Atom   7O    basis set group =>   4
Atom   8O    basis set group =>   4
Atom   9N    basis set group =>   2
Atom  10H    basis set group =>   5
Atom  11C    basis set group =>   1
Atom  12H    basis set group =>   5
Atom  13H    basis set group =>   5
Atom  14H    basis set group =>   5
Atom  15H    basis set group =>   5
Atom  16C    basis set group =>   1
Atom  17C    basis set group =>   1
Atom  18O    basis set group =>   4
Atom  19H    basis set group =>   5
Atom  20H    basis set group =>   5
Atom  21H    basis set group =>   5
---------------------------------
AUXILIARY/C BASIS SET INFORMATION
---------------------------------
There are 5 groups of distinct atoms

 Group   1 Type C   : 9s7p6d4f2g contracted to 9s7p6d4f2g pattern {111111111/1111111/111111/1111/11}
 Group   2 Type N   : 9s7p6d4f2g contracted to 9s7p6d4f2g pattern {111111111/1111111/111111/1111/11}
 Group   3 Type S   : 11s9p8d6f3g contracted to 11s9p8d6f3g pattern {11111111111/111111111/11111111/111111/111}
 Group   4 Type O   : 9s7p6d4f2g contracted to 9s7p6d4f2g pattern {111111111/1111111/111111/1111/11}
 Group   5 Type H   : 5s4p3d2f contracted to 5s4p3d2f pattern {11111/1111/111/11}

Atom   0C    basis set group =>   1
Atom   1N    basis set group =>   2
Atom   2N    basis set group =>   2
Atom   3C    basis set group =>   1
Atom   4N    basis set group =>   2
Atom   5S    basis set group =>   3
Atom   6S    basis set group =>   3
Atom   7O    basis set group =>   4
Atom   8O    basis set group =>   4
Atom   9N    basis set group =>   2
Atom  10H    basis set group =>   5
Atom  11C    basis set group =>   1
Atom  12H    basis set group =>   5
Atom  13H    basis set group =>   5
Atom  14H    basis set group =>   5
Atom  15H    basis set group =>   5
Atom  16C    basis set group =>   1
Atom  17C    basis set group =>   1
Atom  18O    basis set group =>   4
Atom  19H    basis set group =>   5
Atom  20H    basis set group =>   5
Atom  21H    basis set group =>   5


           ************************************************************
           *        Program running with 8 parallel MPI-processes     *
           *              working on a common directory               *
           ************************************************************
------------------------------------------------------------------------------
                           ORCA GTO INTEGRAL CALCULATION
                           -- RI-GTO INTEGRALS CHOSEN --
------------------------------------------------------------------------------
------------------------------------------------------------------------------
                   ___                                                        
                  /   \      - P O W E R E D   B Y -                         
                 /     \                                                     
                 |  |  |   _    _      __       _____    __    __             
                 |  |  |  | |  | |    /  \     |  _  \  |  |  /  |          
                  \  \/   | |  | |   /    \    | | | |  |  | /  /          
                 / \  \   | |__| |  /  /\  \   | |_| |  |  |/  /          
                |  |  |   |  __  | /  /__\  \  |    /   |      \           
                |  |  |   | |  | | |   __   |  |    \   |  |\   \          
                \     /   | |  | | |  |  |  |  | |\  \  |  | \   \       
                 \___/    |_|  |_| |__|  |__|  |_| \__\ |__|  \__/        
                                                                              
                      - O R C A' S   B I G   F R I E N D -                    
                                      &                                       
                       - I N T E G R A L  F E E D E R -                       
                                                                              
 v1 FN, 2020, v2 2021                                                         
------------------------------------------------------------------------------


Reading SHARK input file HA.26.avtz.SHARKINP.tmp ... ok
----------------------
SHARK INTEGRAL PACKAGE
----------------------

Number of atoms                             ...     22
Number of basis functions                   ...    958
Number of shells                            ...    374
Maximum angular momentum                    ...      3
Integral batch strategy                     ... SHARK/LIBINT Hybrid
RI-J (if used) integral strategy            ... SPLIT-RIJ (Revised 2003 algorithm where possible)
Printlevel                                  ...      1
Contraction scheme used                     ... PARTIAL GENERAL contraction
Coulomb Range Separation                    ... NOT USED
Exchange Range Separation                   ... NOT USED
Finite Nucleus Model                        ... NOT USED
Auxiliary Coulomb fitting basis             ... AVAILABLE
   # of basis functions in Aux-J            ...    778
   # of shells in Aux-J                     ...    254
   Maximum angular momentum in Aux-J        ...      4
Auxiliary J/K fitting basis                 ... NOT available
Auxiliary Correlation fitting basis         ... AVAILABLE
   # of basis functions in Aux-C            ...   1934
   # of shells in Aux-C                     ...    522
   Maximum angular momentum in Aux-C        ...      4
Auxiliary 'external' fitting basis          ... NOT available
Integral threshold                          ...     2.500000e-11
Primitive cut-off                           ...     2.500000e-12
Primitive pair pre-selection threshold      ...     2.500000e-12

Calculating pre-screening integrals         ... done (  0.1 sec) Dimension = 374
Calculating pre-screening integrals (ORCA)  ... done (  0.2 sec) Dimension = 272
Organizing shell pair data                  ... done (  0.5 sec)
Shell pair information
Total number of shell pairs                 ...     70125
Shell pairs after pre-screening             ...     48780
Total number of primitive shell pairs       ...     85965
Primitive shell pairs kept                  ...     55407
          la=0 lb=0:  10539 shell pairs
          la=1 lb=0:  12756 shell pairs
          la=1 lb=1:   3533 shell pairs
          la=2 lb=0:   8189 shell pairs
          la=2 lb=1:   4423 shell pairs
          la=2 lb=2:   1431 shell pairs
          la=3 lb=0:   4019 shell pairs
          la=3 lb=1:   2177 shell pairs
          la=3 lb=2:   1366 shell pairs
          la=3 lb=3:    347 shell pairs

Calculating one electron integrals          ... done (  0.1 sec)
Calculating RI/J V-Matrix + Cholesky decomp.... done (  0.0 sec)
Calculating RI/C V-Matrix + Cholesky decomp.... done (  0.2 sec)
Calculating Nuclear repulsion               ... done (  0.0 sec) ENN=   1197.407989122055 Eh

SHARK setup successfully completed in   1.6 seconds

Maximum memory used throughout the entire GTOINT-calculation: 85.4 MB


           ************************************************************
           *        Program running with 8 parallel MPI-processes     *
           *              working on a common directory               *
           ************************************************************
-------------------------------------------------------------------------------
                                 ORCA SCF
-------------------------------------------------------------------------------

------------
SCF SETTINGS
------------
Hamiltonian:
 Density Functional     Method          .... DFT(GTOs)
 Exchange Functional    Exchange        .... PBE
   PBE kappa parameter   XKappa         ....  0.804000
   PBE mue parameter    XMuePBE         ....  0.219520
 Correlation Functional Correlation     .... P86
 LDA part of GGA corr.  LDAOpt          .... VWN-5
 Gradients option       PostSCFGGA      .... off
 Hybrid DFT is turned on
   Fraction HF Exchange ScalHFX         ....  0.700000
   Scaling of DF-GGA-X  ScalDFX         ....  0.300000
   Scaling of DF-GGA-C  ScalDFC         ....  0.430000
   Scaling of DF-LDA-C  ScalLDAC        ....  0.430000
   Perturbative correction              ....  1.000000
   Density functional embedding theory  .... OFF
   NL short-range parameter             .... 14.200000
 RI-approximation to the Coulomb term is turned on
   Number of AuxJ basis functions       .... 778
   RIJ-COSX (HFX calculated with COS-X)).... on


General Settings:
 Integral files         IntName         .... HA.26.avtz
 Hartree-Fock type      HFTyp           .... RHF
 Total Charge           Charge          ....    0
 Multiplicity           Mult            ....    1
 Number of Electrons    NEL             ....  122
 Basis Dimension        Dim             ....  836
 Nuclear Repulsion      ENuc            ....   1197.4079891221 Eh

Convergence Acceleration:
 DIIS                   CNVDIIS         .... on
   Start iteration      DIISMaxIt       ....    12
   Startup error        DIISStart       ....  0.200000
   # of expansion vecs  DIISMaxEq       ....     5
   Bias factor          DIISBfac        ....   1.050
   Max. coefficient     DIISMaxC        ....  10.000
 Trust-Rad. Augm. Hess. CNVTRAH         .... auto
   Auto Start mean grad. ratio tolernc. ....  1.125000
   Auto Start start iteration           ....    20
   Auto Start num. interpolation iter.  ....    10
   Max. Number of Micro iterations      ....    16
   Max. Number of Macro iterations      .... Maxiter - #DIIS iter
   Number of Davidson start vectors     ....     2
   Converg. threshold I  (grad. norm)   ....   1.000e-05
   Converg. threshold II (energy diff.) ....   1.000e-08
   Grad. Scal. Fac. for Micro threshold ....   0.100
   Minimum threshold for Micro iter.    ....   0.010
   NR start threshold (gradient norm)   ....   0.001
   Initial trust radius                 ....   0.400
   Minimum AH scaling param. (alpha)    ....   1.000
   Maximum AH scaling param. (alpha)    .... 1000.000
   Orbital update algorithm             .... Taylor
   White noise on init. David. guess    .... on
   Maximum white noise                  ....   0.010
   Quad. conv. algorithm                .... NR
 SOSCF                  CNVSOSCF        .... on
   Start iteration      SOSCFMaxIt      ....   150
   Startup grad/error   SOSCFStart      ....  0.003300
 Level Shifting         CNVShift        .... on
   Level shift para.    LevelShift      ....    0.2500
   Turn off err/grad.   ShiftErr        ....    0.0010
 Zerner damping         CNVZerner       .... off
 Static damping         CNVDamp         .... on
   Fraction old density DampFac         ....    0.7000
   Max. Damping (<1)    DampMax         ....    0.9800
   Min. Damping (>=0)   DampMin         ....    0.0000
   Turn off err/grad.   DampErr         ....    0.1000
 Fernandez-Rico         CNVRico         .... off

SCF Procedure:
 Maximum # iterations   MaxIter         ....   125
 SCF integral mode      SCFMode         .... Direct
   Integral package                     .... SHARK and LIBINT hybrid scheme
 Reset frequency        DirectResetFreq ....    20
 Integral Threshold     Thresh          ....  2.500e-11 Eh
 Primitive CutOff       TCut            ....  2.500e-12 Eh

Convergence Tolerance:
 Convergence Check Mode ConvCheckMode   .... Total+1el-Energy
 Convergence forced     ConvForced      .... 0
 Energy Change          TolE            ....  1.000e-08 Eh
 1-El. energy change                    ....  1.000e-05 Eh
 Orbital Gradient       TolG            ....  1.000e-05
 Orbital Rotation angle TolX            ....  1.000e-05
 DIIS Error             TolErr          ....  5.000e-07


Diagonalization of the overlap matrix:
Smallest eigenvalue                        ... 1.038e-06
Time for diagonalization                   ...    0.121 sec
Threshold for overlap eigenvalues          ... 1.000e-08
Number of eigenvalues below threshold      ... 0
Time for construction of square roots      ...    0.061 sec
Total time needed                          ...    0.187 sec

Time for model grid setup =    0.173 sec

------------------------------
INITIAL GUESS: MODEL POTENTIAL
------------------------------
Loading Hartree-Fock densities                     ... done
Calculating cut-offs                               ... done
Initializing the effective Hamiltonian             ... done
Setting up the integral package (SHARK)            ... done
Starting the Coulomb interaction                   ... done (   0.5 sec)
Reading the grid                                   ... done
Mapping shells                                     ... done
Starting the XC term evaluation                    ... done (   0.4 sec)
  promolecular density results
     # of electrons  =    121.997087992
     EX              =   -128.489900740
     EC              =     -0.021392736
     EX+EC           =   -128.511293476
Transforming the Hamiltonian                       ... done (   0.1 sec)
Diagonalizing the Hamiltonian                      ... done (   0.1 sec)
Back transforming the eigenvectors                 ... done (   0.0 sec)
Now organizing SCF variables                       ... done
                      ------------------
                      INITIAL GUESS DONE (   1.3 sec)
                      ------------------
-------------------
DFT GRID GENERATION
-------------------

General Integration Accuracy     IntAcc      ... 4.388
Radial Grid Type                 RadialGrid  ... OptM3 with GC (2021)
Angular Grid (max. ang.)         AngularGrid ... 4 (Lebedev-302)
Angular grid pruning method      GridPruning ... 4 (adaptive)
Weight generation scheme         WeightScheme... Becke
Basis function cutoff            BFCut       ... 1.0000e-11
Integration weight cutoff        WCut        ... 1.0000e-14
Angular grids for H and He will be reduced by one unit
Partially contracted basis set               ... off
Rotationally invariant grid construction     ... off

Total number of grid points                  ...   118339
Total number of batches                      ...     1860
Average number of points per batch           ...       63
Average number of grid points per atom       ...     5379
Time for grid setup =    0.673 sec

--------------------
COSX GRID GENERATION
--------------------

GRIDX 1
-------
General Integration Accuracy     IntAcc      ... 3.816
Radial Grid Type                 RadialGrid  ... OptM3 with GC (2021)
Angular Grid (max. ang.)         AngularGrid ... 1 (Lebedev-50)
Angular grid pruning method      GridPruning ... 4 (adaptive)
Weight generation scheme         WeightScheme... Becke
Basis function cutoff            BFCut       ... 1.0000e-11
Integration weight cutoff        WCut        ... 1.0000e-14
Angular grids for H and He will be reduced by one unit
Partially contracted basis set               ... on
Rotationally invariant grid construction     ... off

Total number of grid points                  ...    14703
Total number of batches                      ...      241
Average number of points per batch           ...       61
Average number of grid points per atom       ...      668
UseSFitting                                  ... on

GRIDX 2
-------
General Integration Accuracy     IntAcc      ... 4.020
Radial Grid Type                 RadialGrid  ... OptM3 with GC (2021)
Angular Grid (max. ang.)         AngularGrid ... 2 (Lebedev-110)
Angular grid pruning method      GridPruning ... 4 (adaptive)
Weight generation scheme         WeightScheme... Becke
Basis function cutoff            BFCut       ... 1.0000e-11
Integration weight cutoff        WCut        ... 1.0000e-14
Angular grids for H and He will be reduced by one unit
Partially contracted basis set               ... on
Rotationally invariant grid construction     ... off

Total number of grid points                  ...    36366
Total number of batches                      ...      580
Average number of points per batch           ...       62
Average number of grid points per atom       ...     1653
UseSFitting                                  ... on

GRIDX 3
-------
General Integration Accuracy     IntAcc      ... 4.338
Radial Grid Type                 RadialGrid  ... OptM3 with GC (2021)
Angular Grid (max. ang.)         AngularGrid ... 3 (Lebedev-194)
Angular grid pruning method      GridPruning ... 4 (adaptive)
Weight generation scheme         WeightScheme... Becke
Basis function cutoff            BFCut       ... 1.0000e-11
Integration weight cutoff        WCut        ... 1.0000e-14
Angular grids for H and He will be reduced by one unit
Partially contracted basis set               ... on
Rotationally invariant grid construction     ... off

Total number of grid points                  ...    81454
Total number of batches                      ...     1285
Average number of points per batch           ...       63
Average number of grid points per atom       ...     3702
UseSFitting                                  ... on

Time for X-Grid setup             =    1.390 sec

 re-compute Schwartz prescreening matrix in partically contracted basis (1) ...done (   0.101 sec)
--------------
SCF ITERATIONS
--------------
ITER       Energy         Delta-E        Max-DP      RMS-DP      [F,P]     Damp
               ***  Starting incremental Fock matrix formation  ***
  0  -1433.0384222523   0.000000000000 0.34771879  0.00126701  0.2879640 0.7000
  1  -1433.2576168529  -0.219194600613 0.23485039  0.00089147  0.1453740 0.7000
                               ***Turning on DIIS***
  2  -1433.3604427090  -0.102825856028 0.42708132  0.00181541  0.0672467 0.0000
  3  -1433.5360023956  -0.175559686637 0.12400032  0.00046105  0.0627796 0.0000
  4  -1433.5633184077  -0.027316012054 0.02304053  0.00013998  0.0092370 0.0000
  5  -1433.5645884399  -0.001270032237 0.01284328  0.00006371  0.0049010 0.0000
                      *** Initiating the SOSCF procedure ***
                           *** Shutting down DIIS ***
                      *** Re-Reading the Fockian *** 
                      *** Removing any level shift *** 
ITER      Energy       Delta-E        Grad      Rot      Max-DP    RMS-DP
  6  -1433.56501383  -0.0004253866  0.001964  0.001964  0.016290  0.000058
               *** Restarting incremental Fock matrix formation ***
  7  -1433.56513289  -0.0001190592  0.001245  0.003417  0.056191  0.000352
  8  -1433.56518733  -0.0000544446  0.000476  0.003514  0.029169  0.000210
  9  -1433.56520285  -0.0000155244  0.000229  0.000563  0.028904  0.000190
 10  -1433.56520769  -0.0000048344  0.000067  0.000140  0.033578  0.000104
 11  -1433.56520779  -0.0000001026  0.000036  0.000063  0.004446  0.000018
 12  -1433.56520791  -0.0000001221  0.000009  0.000039  0.005051  0.000024
 13  -1433.56520793  -0.0000000178  0.000004  0.000012  0.004766  0.000019
                  ***Gradient check signals convergence***
              ***Rediagonalizing the Fockian in SOSCF/NRSCF***

               *****************************************************
               *                     SUCCESS                       *
               *           SCF CONVERGED AFTER  14 CYCLES          *
               *****************************************************

Old exchange energy                            =    -91.087437264 Eh
New exchange energy                            =    -91.087474300 Eh
Exchange energy change after final integration =     -0.000037036 Eh
Total energy after final integration           =  -1433.565244969 Eh
Final COS-X integration done in                =    27.795 sec

----------------
TOTAL SCF ENERGY
----------------

Total Energy       :        -1433.56524497 Eh          -39009.29351 eV

Components:
Nuclear Repulsion  :         1197.40798912 Eh           32583.12788 eV
Electronic Energy  :        -2630.97323409 Eh          -71592.42139 eV
One Electron Energy:        -4350.20414843 Eh         -118375.07295 eV
Two Electron Energy:         1719.23091434 Eh           46782.65156 eV
Max COSX asymmetry :            0.00002346 Eh               0.00064 eV

Virial components:
Potential Energy   :        -2863.59875441 Eh          -77922.48361 eV
Kinetic Energy     :         1430.03350944 Eh           38913.19010 eV
Virial Ratio       :            2.00246969


DFT components:
N(Alpha)           :       61.000024323637 electrons
N(Beta)            :       61.000024323637 electrons
N(Total)           :      122.000048647274 electrons
E(X)               :      -38.906386952406 Eh       
E(C)               :       -2.080943702846 Eh       
E(XC)              :      -40.987330655252 Eh       
DFET-embed. en.    :        0.000000000000 Eh       

---------------
SCF CONVERGENCE
---------------

  Last Energy change         ...   -1.1757e-09  Tolerance :   1.0000e-08
  Last MAX-Density change    ...    5.1070e-15  Tolerance :   1.0000e-07
  Last RMS-Density change    ...    1.7573e-17  Tolerance :   5.0000e-09
  Last Orbital Gradient      ...    1.6292e-06  Tolerance :   1.0000e-05
  Last Orbital Rotation      ...    4.8630e-06  Tolerance :   1.0000e-05

             **** THE GBW FILE WAS UPDATED (HA.26.avtz.gbw) ****
             **** DENSITY HA.26.avtz.scfp WAS UPDATED ****
             **** ENERGY FILE WAS UPDATED (HA.26.avtz.en.tmp) ****
             **** THE GBW FILE WAS UPDATED (HA.26.avtz.gbw) ****
             **** DENSITY HA.26.avtz.scfp WAS UPDATED ****
----------------
ORBITAL ENERGIES
----------------

  NO   OCC          E(Eh)            E(eV) 
   0   2.0000     -91.067236     -2478.0655 
   1   2.0000     -90.883901     -2473.0767 
   2   2.0000     -20.037910      -545.2592 
   3   2.0000     -20.036958      -545.2333 
   4   2.0000     -20.011568      -544.5425 
   5   2.0000     -15.218798      -414.1245 
   6   2.0000     -15.196870      -413.5279 
   7   2.0000     -15.158178      -412.4750 
   8   2.0000     -15.096915      -410.8079 
   9   2.0000     -10.987750      -298.9919 
  10   2.0000     -10.954633      -298.0907 
  11   2.0000     -10.953044      -298.0475 
  12   2.0000     -10.898015      -296.5501 
  13   2.0000     -10.835102      -294.8381 
  14   2.0000      -8.809409      -239.7162 
  15   2.0000      -8.657958      -235.5950 
  16   2.0000      -6.595935      -179.4845 
  17   2.0000      -6.594380      -179.4422 
  18   2.0000      -6.592401      -179.3884 
  19   2.0000      -6.440461      -175.2539 
  20   2.0000      -6.437561      -175.1749 
  21   2.0000      -6.436274      -175.1399 
  22   2.0000      -1.363693       -37.1080 
  23   2.0000      -1.321484       -35.9594 
  24   2.0000      -1.277480       -34.7620 
  25   2.0000      -1.245802       -33.9000 
  26   2.0000      -1.150618       -31.3099 
  27   2.0000      -1.134299       -30.8658 
  28   2.0000      -1.082701       -29.4618 
  29   2.0000      -1.000978       -27.2380 
  30   2.0000      -0.921916       -25.0866 
  31   2.0000      -0.912988       -24.8437 
  32   2.0000      -0.857328       -23.3291 
  33   2.0000      -0.796200       -21.6657 
  34   2.0000      -0.743914       -20.2429 
  35   2.0000      -0.718767       -19.5586 
  36   2.0000      -0.680682       -18.5223 
  37   2.0000      -0.654431       -17.8080 
  38   2.0000      -0.642703       -17.4888 
  39   2.0000      -0.638438       -17.3728 
  40   2.0000      -0.621030       -16.8991 
  41   2.0000      -0.616494       -16.7756 
  42   2.0000      -0.584753       -15.9119 
  43   2.0000      -0.572010       -15.5652 
  44   2.0000      -0.561748       -15.2859 
  45   2.0000      -0.551671       -15.0117 
  46   2.0000      -0.539458       -14.6794 
  47   2.0000      -0.516722       -14.0607 
  48   2.0000      -0.504104       -13.7174 
  49   2.0000      -0.488122       -13.2825 
  50   2.0000      -0.478292       -13.0150 
  51   2.0000      -0.466654       -12.6983 
  52   2.0000      -0.464733       -12.6460 
  53   2.0000      -0.450053       -12.2466 
  54   2.0000      -0.441677       -12.0186 
  55   2.0000      -0.437460       -11.9039 
  56   2.0000      -0.425819       -11.5871 
  57   2.0000      -0.404002       -10.9934 
  58   2.0000      -0.401201       -10.9172 
  59   2.0000      -0.368066       -10.0156 
  60   2.0000      -0.322591        -8.7781 
  61   0.0000       0.004709         0.1281 
  62   0.0000       0.012758         0.3472 
  63   0.0000       0.016334         0.4445 
  64   0.0000       0.024232         0.6594 
  65   0.0000       0.028071         0.7639 
  66   0.0000       0.035326         0.9613 
  67   0.0000       0.042134         1.1465 
  68   0.0000       0.044253         1.2042 
  69   0.0000       0.046647         1.2693 
  70   0.0000       0.052238         1.4215 
  71   0.0000       0.057200         1.5565 
  72   0.0000       0.064375         1.7517 
  73   0.0000       0.070864         1.9283 
  74   0.0000       0.079149         2.1538 
  75   0.0000       0.083415         2.2698 
  76   0.0000       0.086663         2.3582 
  77   0.0000       0.090910         2.4738 
  78   0.0000       0.091681         2.4948 
  79   0.0000       0.093292         2.5386 
  80   0.0000       0.094525         2.5721 
  81   0.0000       0.100229         2.7274 
  82   0.0000       0.106472         2.8973 
  83   0.0000       0.110478         3.0062 
  84   0.0000       0.110954         3.0192 
  85   0.0000       0.114779         3.1233 
  86   0.0000       0.116832         3.1792 
  87   0.0000       0.123365         3.3569 
  88   0.0000       0.127063         3.4576 
  89   0.0000       0.130459         3.5500 
  90   0.0000       0.132401         3.6028 
  91   0.0000       0.134740         3.6665 
  92   0.0000       0.139374         3.7926 
  93   0.0000       0.141976         3.8634 
  94   0.0000       0.148417         4.0386 
  95   0.0000       0.151023         4.1096 
  96   0.0000       0.153228         4.1695 
  97   0.0000       0.157226         4.2783 
  98   0.0000       0.161772         4.4020 
  99   0.0000       0.166913         4.5419 
 100   0.0000       0.170767         4.6468 
 101   0.0000       0.177674         4.8348 
 102   0.0000       0.180541         4.9128 
 103   0.0000       0.186448         5.0735 
 104   0.0000       0.189612         5.1596 
 105   0.0000       0.196996         5.3605 
 106   0.0000       0.199721         5.4347 
 107   0.0000       0.201195         5.4748 
 108   0.0000       0.203780         5.5451 
 109   0.0000       0.205986         5.6052 
 110   0.0000       0.209867         5.7108 
 111   0.0000       0.212629         5.7859 
 112   0.0000       0.217983         5.9316 
 113   0.0000       0.225856         6.1459 
 114   0.0000       0.227061         6.1787 
 115   0.0000       0.233256         6.3472 
 116   0.0000       0.237585         6.4650 
 117   0.0000       0.240851         6.5539 
 118   0.0000       0.246443         6.7061 
 119   0.0000       0.249010         6.7759 
 120   0.0000       0.254090         6.9141 
 121   0.0000       0.254358         6.9214 
 122   0.0000       0.260119         7.0782 
 123   0.0000       0.263081         7.1588 
 124   0.0000       0.266150         7.2423 
 125   0.0000       0.271277         7.3818 
 126   0.0000       0.275848         7.5062 
 127   0.0000       0.279565         7.6074 
 128   0.0000       0.284484         7.7412 
 129   0.0000       0.286603         7.7989 
 130   0.0000       0.287482         7.8228 
 131   0.0000       0.292553         7.9608 
 132   0.0000       0.297784         8.1031 
 133   0.0000       0.299512         8.1501 
 134   0.0000       0.304568         8.2877 
 135   0.0000       0.306689         8.3454 
 136   0.0000       0.307655         8.3717 
 137   0.0000       0.311857         8.4861 
 138   0.0000       0.315806         8.5935 
 139   0.0000       0.320134         8.7113 
 140   0.0000       0.323291         8.7972 
 141   0.0000       0.327276         8.9056 
 142   0.0000       0.330130         8.9833 
 143   0.0000       0.332947         9.0599 
 144   0.0000       0.335814         9.1380 
 145   0.0000       0.349561         9.5120 
 146   0.0000       0.350439         9.5359 
 147   0.0000       0.356303         9.6955 
 148   0.0000       0.359344         9.7782 
 149   0.0000       0.361919         9.8483 
 150   0.0000       0.363387         9.8883 
 151   0.0000       0.371209        10.1011 
 152   0.0000       0.373938        10.1754 
 153   0.0000       0.380035        10.3413 
 154   0.0000       0.380334        10.3494 
 155   0.0000       0.385574        10.4920 
 156   0.0000       0.390002        10.6125 
 157   0.0000       0.391520        10.6538 
 158   0.0000       0.395415        10.7598 
 159   0.0000       0.400554        10.8996 
 160   0.0000       0.405355        11.0303 
 161   0.0000       0.409845        11.1525 
 162   0.0000       0.412196        11.2164 
 163   0.0000       0.413814        11.2605 
 164   0.0000       0.417307        11.3555 
 165   0.0000       0.417651        11.3649 
 166   0.0000       0.420710        11.4481 
 167   0.0000       0.433799        11.8043 
 168   0.0000       0.434909        11.8345 
 169   0.0000       0.437302        11.8996 
 170   0.0000       0.443720        12.0742 
 171   0.0000       0.446788        12.1577 
 172   0.0000       0.452441        12.3116 
 173   0.0000       0.453962        12.3529 
 174   0.0000       0.457137        12.4393 
 175   0.0000       0.459202        12.4955 
 176   0.0000       0.464666        12.6442 
 177   0.0000       0.469426        12.7737 
 178   0.0000       0.472691        12.8626 
 179   0.0000       0.477511        12.9937 
 180   0.0000       0.481060        13.0903 
 181   0.0000       0.482258        13.1229 
 182   0.0000       0.489697        13.3253 
 183   0.0000       0.501877        13.6568 
 184   0.0000       0.504450        13.7268 
 185   0.0000       0.508666        13.8415 
 186   0.0000       0.514953        14.0126 
 187   0.0000       0.515299        14.0220 
 188   0.0000       0.520858        14.1733 
 189   0.0000       0.526291        14.3211 
 190   0.0000       0.529407        14.4059 
 191   0.0000       0.531146        14.4532 
 192   0.0000       0.533022        14.5043 
 193   0.0000       0.539401        14.6779 
 194   0.0000       0.545430        14.8419 
 195   0.0000       0.547494        14.8981 
 196   0.0000       0.549398        14.9499 
 197   0.0000       0.555820        15.1246 
 198   0.0000       0.559075        15.2132 
 199   0.0000       0.573219        15.5981 
 200   0.0000       0.576609        15.6903 
 201   0.0000       0.579704        15.7745 
 202   0.0000       0.587263        15.9802 
 203   0.0000       0.594423        16.1751 
 204   0.0000       0.599199        16.3050 
 205   0.0000       0.604370        16.4457 
 206   0.0000       0.612568        16.6688 
 207   0.0000       0.614528        16.7222 
 208   0.0000       0.616582        16.7780 
 209   0.0000       0.623980        16.9793 
 210   0.0000       0.630082        17.1454 
 211   0.0000       0.632083        17.1999 
 212   0.0000       0.637535        17.3482 
 213   0.0000       0.640748        17.4356 
 214   0.0000       0.647298        17.6139 
 215   0.0000       0.658228        17.9113 
 216   0.0000       0.662244        18.0206 
 217   0.0000       0.667349        18.1595 
 218   0.0000       0.670647        18.2492 
 219   0.0000       0.675970        18.3941 
 220   0.0000       0.677552        18.4371 
 221   0.0000       0.692305        18.8386 
 222   0.0000       0.703835        19.1523 
 223   0.0000       0.704117        19.1600 
 224   0.0000       0.708644        19.2832 
 225   0.0000       0.711047        19.3486 
 226   0.0000       0.720532        19.6067 
 227   0.0000       0.723120        19.6771 
 228   0.0000       0.737665        20.0729 
 229   0.0000       0.746583        20.3156 
 230   0.0000       0.747228        20.3331 
 231   0.0000       0.752199        20.4684 
 232   0.0000       0.762281        20.7427 
 233   0.0000       0.763899        20.7867 
 234   0.0000       0.765318        20.8254 
 235   0.0000       0.770025        20.9534 
 236   0.0000       0.772471        21.0200 
 237   0.0000       0.777791        21.1648 
 238   0.0000       0.783224        21.3126 
 239   0.0000       0.787258        21.4224 
 240   0.0000       0.792194        21.5567 
 241   0.0000       0.797846        21.7105 
 242   0.0000       0.799099        21.7446 
 243   0.0000       0.808750        22.0072 
 244   0.0000       0.815406        22.1883 
 245   0.0000       0.821723        22.3602 
 246   0.0000       0.823689        22.4137 
 247   0.0000       0.830372        22.5956 
 248   0.0000       0.834766        22.7152 
 249   0.0000       0.839786        22.8517 
 250   0.0000       0.842299        22.9201 
 251   0.0000       0.847839        23.0709 
 252   0.0000       0.849271        23.1098 
 253   0.0000       0.852606        23.2006 
 254   0.0000       0.858091        23.3498 
 255   0.0000       0.863712        23.5028 
 256   0.0000       0.867956        23.6183 
 257   0.0000       0.872556        23.7435 
 258   0.0000       0.878174        23.8963 
 259   0.0000       0.880889        23.9702 
 260   0.0000       0.888706        24.1829 
 261   0.0000       0.893628        24.3169 
 262   0.0000       0.898145        24.4398 
 263   0.0000       0.908229        24.7142 
 264   0.0000       0.910271        24.7697 
 265   0.0000       0.914340        24.8805 
 266   0.0000       0.918879        25.0040 
 267   0.0000       0.925288        25.1784 
 268   0.0000       0.931866        25.3574 
 269   0.0000       0.934102        25.4182 
 270   0.0000       0.941257        25.6129 
 271   0.0000       0.943359        25.6701 
 272   0.0000       0.950207        25.8564 
 273   0.0000       0.956450        26.0263 
 274   0.0000       0.959376        26.1059 
 275   0.0000       0.963477        26.2175 
 276   0.0000       0.975421        26.5426 
 277   0.0000       0.979495        26.6534 
 278   0.0000       0.980788        26.6886 
 279   0.0000       0.987603        26.8741 
 280   0.0000       0.991147        26.9705 
 281   0.0000       0.993951        27.0468 
 282   0.0000       0.996697        27.1215 
 283   0.0000       1.001914        27.2635 
 284   0.0000       1.003305        27.3013 
 285   0.0000       1.009957        27.4823 
 286   0.0000       1.012235        27.5443 
 287   0.0000       1.018235        27.7076 
 288   0.0000       1.024653        27.8822 
 289   0.0000       1.028130        27.9768 
 290   0.0000       1.034132        28.1402 
 291   0.0000       1.039689        28.2914 
 292   0.0000       1.043775        28.4026 
 293   0.0000       1.046908        28.4878 
 294   0.0000       1.050874        28.5957 
 295   0.0000       1.063119        28.9290 
 296   0.0000       1.064447        28.9651 
 297   0.0000       1.069721        29.1086 
 298   0.0000       1.073135        29.2015 
 299   0.0000       1.077110        29.3096 
 300   0.0000       1.081098        29.4182 
 301   0.0000       1.087012        29.5791 
 302   0.0000       1.094309        29.7776 
 303   0.0000       1.097257        29.8579 
 304   0.0000       1.099644        29.9228 
 305   0.0000       1.109171        30.1821 
 306   0.0000       1.116829        30.3905 
 307   0.0000       1.121880        30.5279 
 308   0.0000       1.129170        30.7263 
 309   0.0000       1.130346        30.7583 
 310   0.0000       1.136926        30.9373 
 311   0.0000       1.143881        31.1266 
 312   0.0000       1.147992        31.2384 
 313   0.0000       1.156172        31.4610 
 314   0.0000       1.159298        31.5461 
 315   0.0000       1.164571        31.6896 
 316   0.0000       1.170842        31.8602 
 317   0.0000       1.175507        31.9872 
 318   0.0000       1.183088        32.1935 
 319   0.0000       1.192125        32.4394 
 320   0.0000       1.195784        32.5389 
 321   0.0000       1.200133        32.6573 
 322   0.0000       1.204931        32.7878 
 323   0.0000       1.207740        32.8643 
 324   0.0000       1.212767        33.0011 
 325   0.0000       1.216448        33.1012 
 326   0.0000       1.223663        33.2976 
 327   0.0000       1.226904        33.3858 
 328   0.0000       1.232038        33.5255 
 329   0.0000       1.238829        33.7102 
 330   0.0000       1.247361        33.9424 
 331   0.0000       1.249723        34.0067 
 332   0.0000       1.253885        34.1199 
 333   0.0000       1.259021        34.2597 
 334   0.0000       1.269358        34.5410 
 335   0.0000       1.273128        34.6436 
 336   0.0000       1.279469        34.8161 
 337   0.0000       1.290867        35.1263 
 338   0.0000       1.291573        35.1455 
 339   0.0000       1.294639        35.2289 
 340   0.0000       1.300274        35.3823 
 341   0.0000       1.310628        35.6640 
 342   0.0000       1.320194        35.9243 
 343   0.0000       1.328687        36.1554 
 344   0.0000       1.330838        36.2139 
 345   0.0000       1.345068        36.6012 
 346   0.0000       1.355197        36.8768 
 347   0.0000       1.358956        36.9791 
 348   0.0000       1.367389        37.2085 
 349   0.0000       1.370727        37.2994 
 350   0.0000       1.376881        37.4668 
 351   0.0000       1.379356        37.5342 
 352   0.0000       1.386047        37.7163 
 353   0.0000       1.398509        38.0554 
 354   0.0000       1.403364        38.1875 
 355   0.0000       1.414426        38.4885 
 356   0.0000       1.419777        38.6341 
 357   0.0000       1.425812        38.7983 
 358   0.0000       1.429413        38.8963 
 359   0.0000       1.430327        38.9212 
 360   0.0000       1.441551        39.2266 
 361   0.0000       1.446725        39.3674 
 362   0.0000       1.451316        39.4923 
 363   0.0000       1.458705        39.6934 
 364   0.0000       1.474948        40.1354 
 365   0.0000       1.476034        40.1649 
 366   0.0000       1.482679        40.3458 
 367   0.0000       1.485428        40.4205 
 368   0.0000       1.497056        40.7370 
 369   0.0000       1.502714        40.8909 
 370   0.0000       1.506467        40.9930 
 371   0.0000       1.510849        41.1123 
 372   0.0000       1.514079        41.2002 
 373   0.0000       1.519485        41.3473 
 374   0.0000       1.525749        41.5177 
 375   0.0000       1.538271        41.8585 
 376   0.0000       1.539119        41.8816 
 377   0.0000       1.546860        42.0922 
 378   0.0000       1.548776        42.1443 
 379   0.0000       1.552161        42.2364 
 380   0.0000       1.561191        42.4822 
 381   0.0000       1.561997        42.5041 
 382   0.0000       1.572348        42.7858 
 383   0.0000       1.582053        43.0499 
 384   0.0000       1.593855        43.3710 
 385   0.0000       1.597101        43.4593 
 386   0.0000       1.603373        43.6300 
 387   0.0000       1.611357        43.8473 
 388   0.0000       1.620183        44.0874 
 389   0.0000       1.626616        44.2625 
 390   0.0000       1.630477        44.3675 
 391   0.0000       1.633902        44.4607 
 392   0.0000       1.639688        44.6182 
 393   0.0000       1.643535        44.7229 
 394   0.0000       1.649950        44.8974 
 395   0.0000       1.661959        45.2242 
 396   0.0000       1.668337        45.3978 
 397   0.0000       1.678325        45.6695 
 398   0.0000       1.688331        45.9418 
 399   0.0000       1.697365        46.1876 
 400   0.0000       1.701177        46.2914 
 401   0.0000       1.708056        46.4786 
 402   0.0000       1.717071        46.7239 
 403   0.0000       1.720515        46.8176 
 404   0.0000       1.736434        47.2508 
 405   0.0000       1.743949        47.4553 
 406   0.0000       1.755734        47.7760 
 407   0.0000       1.761293        47.9272 
 408   0.0000       1.770682        48.1827 
 409   0.0000       1.785414        48.5836 
 410   0.0000       1.788342        48.6633 
 411   0.0000       1.798697        48.9450 
 412   0.0000       1.812680        49.3255 
 413   0.0000       1.820284        49.5324 
 414   0.0000       1.824074        49.6356 
 415   0.0000       1.825550        49.6757 
 416   0.0000       1.833973        49.9049 
 417   0.0000       1.843755        50.1711 
 418   0.0000       1.845055        50.2065 
 419   0.0000       1.858041        50.5599 
 420   0.0000       1.863836        50.7176 
 421   0.0000       1.867808        50.8256 
 422   0.0000       1.871552        50.9275 
 423   0.0000       1.886513        51.3346 
 424   0.0000       1.895145        51.5695 
 425   0.0000       1.907264        51.8993 
 426   0.0000       1.914194        52.0879 
 427   0.0000       1.925352        52.3915 
 428   0.0000       1.932140        52.5762 
 429   0.0000       1.937251        52.7153 
 430   0.0000       1.959917        53.3320 
 431   0.0000       1.960612        53.3510 
 432   0.0000       1.975761        53.7632 
 433   0.0000       1.979346        53.8607 
 434   0.0000       1.991848        54.2009 
 435   0.0000       1.999160        54.3999 
 436   0.0000       2.007378        54.6235 
 437   0.0000       2.010090        54.6973 
 438   0.0000       2.012491        54.7627 
 439   0.0000       2.015009        54.8312 
 440   0.0000       2.028451        55.1969 
 441   0.0000       2.038139        55.4606 
 442   0.0000       2.049617        55.7729 
 443   0.0000       2.059904        56.0528 
 444   0.0000       2.064108        56.1672 
 445   0.0000       2.075971        56.4901 
 446   0.0000       2.084292        56.7165 
 447   0.0000       2.091991        56.9260 
 448   0.0000       2.095380        57.0182 
 449   0.0000       2.109655        57.4066 
 450   0.0000       2.113430        57.5094 
 451   0.0000       2.115231        57.5584 
 452   0.0000       2.116417        57.5906 
 453   0.0000       2.132328        58.0236 
 454   0.0000       2.134647        58.0867 
 455   0.0000       2.143883        58.3380 
 456   0.0000       2.146107        58.3985 
 457   0.0000       2.157377        58.7052 
 458   0.0000       2.166703        58.9590 
 459   0.0000       2.168754        59.0148 
 460   0.0000       2.176643        59.2295 
 461   0.0000       2.180169        59.3254 
 462   0.0000       2.190670        59.6112 
 463   0.0000       2.204429        59.9855 
 464   0.0000       2.209005        60.1101 
 465   0.0000       2.213053        60.2202 
 466   0.0000       2.225201        60.5508 
 467   0.0000       2.235528        60.8318 
 468   0.0000       2.239150        60.9304 
 469   0.0000       2.245278        61.0971 
 470   0.0000       2.256331        61.3979 
 471   0.0000       2.268975        61.7420 
 472   0.0000       2.283057        62.1251 
 473   0.0000       2.289065        62.2886 
 474   0.0000       2.294709        62.4422 
 475   0.0000       2.298876        62.5556 
 476   0.0000       2.303563        62.6831 
 477   0.0000       2.308616        62.8206 
 478   0.0000       2.316977        63.0482 
 479   0.0000       2.323004        63.2122 
 480   0.0000       2.332593        63.4731 
 481   0.0000       2.341044        63.7030 
 482   0.0000       2.353908        64.0531 
 483   0.0000       2.357361        64.1471 
 484   0.0000       2.370011        64.4913 
 485   0.0000       2.376633        64.6715 
 486   0.0000       2.385992        64.9262 
 487   0.0000       2.388423        64.9923 
 488   0.0000       2.407624        65.5148 
 489   0.0000       2.413495        65.6745 
 490   0.0000       2.422491        65.9193 
 491   0.0000       2.428218        66.0752 
 492   0.0000       2.441383        66.4334 
 493   0.0000       2.445098        66.5345 
 494   0.0000       2.447525        66.6005 
 495   0.0000       2.451246        66.7018 
 496   0.0000       2.457641        66.8758 
 497   0.0000       2.473876        67.3176 
 498   0.0000       2.476865        67.3989 
 499   0.0000       2.485980        67.6469 
 500   0.0000       2.495213        67.8982 
 501   0.0000       2.510341        68.3099 
 502   0.0000       2.518852        68.5415 
 503   0.0000       2.526680        68.7545 
 504   0.0000       2.533855        68.9497 
 505   0.0000       2.539281        69.0973 
 506   0.0000       2.552302        69.4517 
 507   0.0000       2.571483        69.9736 
 508   0.0000       2.581704        70.2517 
 509   0.0000       2.599220        70.7284 
 510   0.0000       2.605689        70.9044 
 511   0.0000       2.615692        71.1766 
 512   0.0000       2.627933        71.5097 
 513   0.0000       2.645955        72.0001 
 514   0.0000       2.649865        72.1065 
 515   0.0000       2.654294        72.2270 
 516   0.0000       2.670551        72.6694 
 517   0.0000       2.681269        72.9610 
 518   0.0000       2.696777        73.3830 
 519   0.0000       2.705010        73.6071 
 520   0.0000       2.715078        73.8810 
 521   0.0000       2.717443        73.9454 
 522   0.0000       2.724837        74.1466 
 523   0.0000       2.733385        74.3792 
 524   0.0000       2.750890        74.8555 
 525   0.0000       2.762014        75.1582 
 526   0.0000       2.768962        75.3473 
 527   0.0000       2.773011        75.4575 
 528   0.0000       2.780258        75.6547 
 529   0.0000       2.803169        76.2781 
 530   0.0000       2.809546        76.4516 
 531   0.0000       2.821266        76.7706 
 532   0.0000       2.837520        77.2129 
 533   0.0000       2.839349        77.2626 
 534   0.0000       2.854654        77.6791 
 535   0.0000       2.876605        78.2764 
 536   0.0000       2.888948        78.6123 
 537   0.0000       2.900261        78.9201 
 538   0.0000       2.909658        79.1758 
 539   0.0000       2.928844        79.6979 
 540   0.0000       2.940696        80.0204 
 541   0.0000       2.959326        80.5274 
 542   0.0000       2.995859        81.5215 
 543   0.0000       2.998184        81.5847 
 544   0.0000       3.019298        82.1593 
 545   0.0000       3.032054        82.5064 
 546   0.0000       3.038922        82.6933 
 547   0.0000       3.048631        82.9575 
 548   0.0000       3.065972        83.4293 
 549   0.0000       3.082727        83.8853 
 550   0.0000       3.109823        84.6226 
 551   0.0000       3.118984        84.8719 
 552   0.0000       3.137543        85.3769 
 553   0.0000       3.159163        85.9652 
 554   0.0000       3.161046        86.0164 
 555   0.0000       3.182156        86.5909 
 556   0.0000       3.195951        86.9663 
 557   0.0000       3.198475        87.0349 
 558   0.0000       3.215766        87.5054 
 559   0.0000       3.229664        87.8836 
 560   0.0000       3.240665        88.1830 
 561   0.0000       3.261227        88.7425 
 562   0.0000       3.266360        88.8822 
 563   0.0000       3.277152        89.1758 
 564   0.0000       3.283213        89.3408 
 565   0.0000       3.296817        89.7110 
 566   0.0000       3.312593        90.1402 
 567   0.0000       3.329156        90.5909 
 568   0.0000       3.353670        91.2580 
 569   0.0000       3.376556        91.8808 
 570   0.0000       3.389676        92.2378 
 571   0.0000       3.405389        92.6653 
 572   0.0000       3.424424        93.1833 
 573   0.0000       3.432397        93.4003 
 574   0.0000       3.464932        94.2856 
 575   0.0000       3.478746        94.6615 
 576   0.0000       3.483361        94.7871 
 577   0.0000       3.489408        94.9516 
 578   0.0000       3.499373        95.2228 
 579   0.0000       3.512103        95.5692 
 580   0.0000       3.527175        95.9793 
 581   0.0000       3.533692        96.1566 
 582   0.0000       3.537023        96.2473 
 583   0.0000       3.543459        96.4224 
 584   0.0000       3.582092        97.4737 
 585   0.0000       3.592363        97.7532 
 586   0.0000       3.594757        97.8183 
 587   0.0000       3.618610        98.4674 
 588   0.0000       3.622130        98.5632 
 589   0.0000       3.637600        98.9841 
 590   0.0000       3.643560        99.1463 
 591   0.0000       3.655763        99.4784 
 592   0.0000       3.683220       100.2255 
 593   0.0000       3.692358       100.4742 
 594   0.0000       3.701394       100.7201 
 595   0.0000       3.713489       101.0492 
 596   0.0000       3.719903       101.2237 
 597   0.0000       3.726997       101.4167 
 598   0.0000       3.733038       101.5811 
 599   0.0000       3.744010       101.8797 
 600   0.0000       3.750293       102.0507 
 601   0.0000       3.761181       102.3469 
 602   0.0000       3.772525       102.6556 
 603   0.0000       3.781749       102.9066 
 604   0.0000       3.795889       103.2914 
 605   0.0000       3.803792       103.5065 
 606   0.0000       3.810202       103.6809 
 607   0.0000       3.818692       103.9119 
 608   0.0000       3.822763       104.0227 
 609   0.0000       3.831384       104.2572 
 610   0.0000       3.837789       104.4316 
 611   0.0000       3.843473       104.5862 
 612   0.0000       3.852598       104.8345 
 613   0.0000       3.865269       105.1793 
 614   0.0000       3.884252       105.6959 
 615   0.0000       3.889479       105.8381 
 616   0.0000       3.892567       105.9221 
 617   0.0000       3.918637       106.6315 
 618   0.0000       3.920859       106.6920 
 619   0.0000       3.945025       107.3496 
 620   0.0000       3.950187       107.4901 
 621   0.0000       3.955699       107.6400 
 622   0.0000       3.964476       107.8789 
 623   0.0000       3.969436       108.0138 
 624   0.0000       3.996863       108.7602 
 625   0.0000       4.015031       109.2546 
 626   0.0000       4.020782       109.4110 
 627   0.0000       4.023493       109.4848 
 628   0.0000       4.036424       109.8367 
 629   0.0000       4.046686       110.1159 
 630   0.0000       4.054022       110.3156 
 631   0.0000       4.064946       110.6128 
 632   0.0000       4.084100       111.1340 
 633   0.0000       4.095193       111.4359 
 634   0.0000       4.109645       111.8291 
 635   0.0000       4.121654       112.1559 
 636   0.0000       4.133871       112.4883 
 637   0.0000       4.153900       113.0334 
 638   0.0000       4.168468       113.4298 
 639   0.0000       4.186139       113.9106 
 640   0.0000       4.196320       114.1877 
 641   0.0000       4.209034       114.5336 
 642   0.0000       4.218522       114.7918 
 643   0.0000       4.239876       115.3729 
 644   0.0000       4.243263       115.4651 
 645   0.0000       4.267866       116.1345 
 646   0.0000       4.280652       116.4825 
 647   0.0000       4.286701       116.6471 
 648   0.0000       4.293549       116.8334 
 649   0.0000       4.296623       116.9171 
 650   0.0000       4.309901       117.2784 
 651   0.0000       4.325089       117.6917 
 652   0.0000       4.340217       118.1033 
 653   0.0000       4.343647       118.1966 
 654   0.0000       4.350552       118.3845 
 655   0.0000       4.358821       118.6095 
 656   0.0000       4.376719       119.0966 
 657   0.0000       4.397503       119.6621 
 658   0.0000       4.430550       120.5614 
 659   0.0000       4.446572       120.9974 
 660   0.0000       4.458103       121.3111 
 661   0.0000       4.471083       121.6644 
 662   0.0000       4.485269       122.0504 
 663   0.0000       4.497744       122.3898 
 664   0.0000       4.500113       122.4543 
 665   0.0000       4.516251       122.8934 
 666   0.0000       4.548118       123.7606 
 667   0.0000       4.551314       123.8475 
 668   0.0000       4.558636       124.0468 
 669   0.0000       4.570232       124.3623 
 670   0.0000       4.589814       124.8952 
 671   0.0000       4.597499       125.1043 
 672   0.0000       4.624309       125.8338 
 673   0.0000       4.648384       126.4890 
 674   0.0000       4.650237       126.5394 
 675   0.0000       4.657315       126.7320 
 676   0.0000       4.672305       127.1399 
 677   0.0000       4.677466       127.2803 
 678   0.0000       4.698278       127.8466 
 679   0.0000       4.704064       128.0041 
 680   0.0000       4.708802       128.1330 
 681   0.0000       4.723257       128.5264 
 682   0.0000       4.736746       128.8934 
 683   0.0000       4.743609       129.0802 
 684   0.0000       4.753211       129.3415 
 685   0.0000       4.772217       129.8586 
 686   0.0000       4.795759       130.4992 
 687   0.0000       4.827738       131.3694 
 688   0.0000       4.836483       131.6074 
 689   0.0000       4.857384       132.1761 
 690   0.0000       4.879629       132.7815 
 691   0.0000       4.888447       133.0214 
 692   0.0000       4.911726       133.6549 
 693   0.0000       4.930449       134.1643 
 694   0.0000       4.931720       134.1989 
 695   0.0000       4.947520       134.6289 
 696   0.0000       4.966433       135.1435 
 697   0.0000       4.977180       135.4359 
 698   0.0000       4.992714       135.8587 
 699   0.0000       5.004292       136.1737 
 700   0.0000       5.012168       136.3880 
 701   0.0000       5.041074       137.1746 
 702   0.0000       5.056477       137.5937 
 703   0.0000       5.068321       137.9160 
 704   0.0000       5.077146       138.1562 
 705   0.0000       5.104510       138.9008 
 706   0.0000       5.108901       139.0203 
 707   0.0000       5.113334       139.1409 
 708   0.0000       5.126834       139.5083 
 709   0.0000       5.137971       139.8113 
 710   0.0000       5.171906       140.7347 
 711   0.0000       5.185474       141.1039 
 712   0.0000       5.189663       141.2179 
 713   0.0000       5.205680       141.6537 
 714   0.0000       5.222125       142.1012 
 715   0.0000       5.246473       142.7638 
 716   0.0000       5.256902       143.0476 
 717   0.0000       5.292600       144.0190 
 718   0.0000       5.316056       144.6572 
 719   0.0000       5.348968       145.5528 
 720   0.0000       5.368109       146.0737 
 721   0.0000       5.387633       146.6049 
 722   0.0000       5.416781       147.3981 
 723   0.0000       5.449660       148.2928 
 724   0.0000       5.467692       148.7835 
 725   0.0000       5.473102       148.9307 
 726   0.0000       5.486972       149.3081 
 727   0.0000       5.489412       149.3745 
 728   0.0000       5.508234       149.8867 
 729   0.0000       5.518911       150.1772 
 730   0.0000       5.528795       150.4462 
 731   0.0000       5.545706       150.9063 
 732   0.0000       5.557952       151.2396 
 733   0.0000       5.594232       152.2268 
 734   0.0000       5.608625       152.6184 
 735   0.0000       5.633957       153.3078 
 736   0.0000       5.643595       153.5700 
 737   0.0000       5.648635       153.7072 
 738   0.0000       5.653199       153.8314 
 739   0.0000       5.680150       154.5647 
 740   0.0000       5.703191       155.1917 
 741   0.0000       5.725854       155.8084 
 742   0.0000       5.732155       155.9799 
 743   0.0000       5.745721       156.3490 
 744   0.0000       5.762980       156.8187 
 745   0.0000       5.799347       157.8082 
 746   0.0000       5.803667       157.9258 
 747   0.0000       5.816911       158.2862 
 748   0.0000       5.866257       159.6290 
 749   0.0000       5.871617       159.7748 
 750   0.0000       5.874973       159.8661 
 751   0.0000       5.922381       161.1562 
 752   0.0000       5.936517       161.5409 
 753   0.0000       5.949431       161.8923 
 754   0.0000       5.964083       162.2910 
 755   0.0000       5.976491       162.6286 
 756   0.0000       5.983302       162.8139 
 757   0.0000       6.012158       163.5991 
 758   0.0000       6.025510       163.9625 
 759   0.0000       6.033972       164.1927 
 760   0.0000       6.051516       164.6701 
 761   0.0000       6.074414       165.2932 
 762   0.0000       6.117439       166.4640 
 763   0.0000       6.162719       167.6961 
 764   0.0000       6.196026       168.6024 
 765   0.0000       6.228697       169.4915 
 766   0.0000       6.250728       170.0910 
 767   0.0000       6.356961       172.9817 
 768   0.0000       6.416671       174.6065 
 769   0.0000       6.432380       175.0339 
 770   0.0000       6.456226       175.6829 
 771   0.0000       6.473804       176.1612 
 772   0.0000       6.482562       176.3995 
 773   0.0000       6.512967       177.2268 
 774   0.0000       6.526892       177.6058 
 775   0.0000       6.537902       177.9053 
 776   0.0000       6.540837       177.9852 
 777   0.0000       6.553197       178.3216 
 778   0.0000       6.563455       178.6007 
 779   0.0000       6.582344       179.1147 
 780   0.0000       6.598175       179.5455 
 781   0.0000       6.604707       179.7232 
 782   0.0000       6.636457       180.5872 
 783   0.0000       6.676751       181.6836 
 784   0.0000       6.686816       181.9575 
 785   0.0000       6.702480       182.3837 
 786   0.0000       6.712649       182.6605 
 787   0.0000       6.730203       183.1381 
 788   0.0000       6.735497       183.2822 
 789   0.0000       6.750685       183.6955 
 790   0.0000       6.764210       184.0635 
 791   0.0000       6.787048       184.6850 
 792   0.0000       6.792680       184.8382 
 793   0.0000       6.826577       185.7606 
 794   0.0000       6.833486       185.9486 
 795   0.0000       6.843381       186.2179 
 796   0.0000       6.846437       186.3010 
 797   0.0000       6.885096       187.3530 
 798   0.0000       6.898790       187.7256 
 799   0.0000       6.911907       188.0825 
 800   0.0000       6.925570       188.4543 
 801   0.0000       7.041367       191.6053 
 802   0.0000       7.057150       192.0348 
 803   0.0000       7.083598       192.7545 
 804   0.0000       7.099829       193.1962 
 805   0.0000       7.104861       193.3331 
 806   0.0000       7.144187       194.4032 
 807   0.0000       7.202133       195.9800 
 808   0.0000       7.207964       196.1387 
 809   0.0000       7.330783       199.4807 
 810   0.0000       7.439855       202.4488 
 811   0.0000       7.462790       203.0728 
[...]
      py      :     3.077514
      dz2     :     0.104185  d :     0.545267
      dxz     :     0.151886
      dyz     :     0.138950
      dx2y2   :     0.077080
      dxy     :     0.073166
      f0      :     0.032148  f :     0.281370
      f+1     :     0.046806
      f-1     :     0.046726
      f+2     :     0.051857
      f-2     :     0.048041
      f+3     :     0.030966
      f-3     :     0.024827
  6 S s       :     4.497346  s :     4.497346
      pz      :     2.676083  p :     8.071140
      px      :     2.731388
      py      :     2.663669
      dz2     :     0.405302  d :     2.219471
      dxz     :     0.464182
      dyz     :     0.377709
      dx2y2   :     0.472365
      dxy     :     0.499913
      f0      :     0.122858  f :     1.182154
      f+1     :     0.181268
      f-1     :     0.128606
      f+2     :     0.142196
      f-2     :     0.181367
      f+3     :     0.244793
      f-3     :     0.181067
  7 O s       :     3.332041  s :     3.332041
      pz      :     1.463703  p :     4.312523
      px      :     1.416759
      py      :     1.432061
      dz2     :     0.025781  d :     0.220550
      dxz     :     0.043494
      dyz     :     0.027142
      dx2y2   :     0.055227
      dxy     :     0.068906
      f0      :     0.007900  f :     0.073000
      f+1     :     0.008467
      f-1     :     0.004465
      f+2     :     0.004590
      f-2     :     0.011972
      f+3     :     0.015838
      f-3     :     0.019769
  8 O s       :     3.328282  s :     3.328282
      pz      :     1.460255  p :     4.320031
      px      :     1.415771
      py      :     1.444005
      dz2     :     0.039074  d :     0.222848
      dxz     :     0.058323
      dyz     :     0.026067
      dx2y2   :     0.048205
      dxy     :     0.051180
      f0      :     0.007156  f :     0.072911
      f+1     :     0.012855
      f-1     :     0.004875
      f+2     :     0.012053
      f-2     :     0.012113
      f+3     :     0.011314
      f-3     :     0.012547
  9 N s       :     2.717432  s :     2.717432
      pz      :     1.111663  p :     3.119080
      px      :     1.012192
      py      :     0.995226
      dz2     :     0.052445  d :     0.373692
      dxz     :     0.043894
      dyz     :     0.081686
      dx2y2   :     0.069554
      dxy     :     0.126112
      f0      :     0.011309  f :     0.112503
      f+1     :     0.007659
      f-1     :     0.019190
      f+2     :     0.019104
      f-2     :     0.017489
      f+3     :     0.017953
      f-3     :     0.019798
 10 H s       :     0.603133  s :     0.603133
      pz      :     0.157758  p :     0.439793
      px      :     0.161136
      py      :     0.120899
      dz2     :     0.050128  d :     0.309424
      dxz     :     0.072727
      dyz     :     0.038299
      dx2y2   :     0.076895
      dxy     :     0.071375
 11 C s       :     2.446788  s :     2.446788
      pz      :     0.746983  p :     2.216263
      px      :     0.775413
      py      :     0.693867
      dz2     :     0.107688  d :     0.577917
      dxz     :     0.110639
      dyz     :     0.132479
      dx2y2   :     0.071279
      dxy     :     0.155831
      f0      :     0.023619  f :     0.246207
      f+1     :     0.017440
      f-1     :     0.056468
      f+2     :     0.037415
      f-2     :     0.041033
      f+3     :     0.024326
      f-3     :     0.045907
 12 H s       :     0.635838  s :     0.635838
      pz      :     0.104517  p :     0.304978
      px      :     0.113223
      py      :     0.087238
      dz2     :     0.045421  d :     0.229220
      dxz     :     0.042911
      dyz     :     0.043940
      dx2y2   :     0.051806
      dxy     :     0.045142
 13 H s       :     0.632654  s :     0.632654
      pz      :     0.123724  p :     0.301397
      px      :     0.094071
      py      :     0.083602
      dz2     :     0.059007  d :     0.221706
      dxz     :     0.053579
      dyz     :     0.062072
      dx2y2   :     0.010314
      dxy     :     0.036734
 14 H s       :     0.634197  s :     0.634197
      pz      :     0.078181  p :     0.300370
      px      :     0.126040
      py      :     0.096149
      dz2     :     0.016018  d :     0.220626
      dxz     :     0.053975
      dyz     :     0.038491
      dx2y2   :     0.063002
      dxy     :     0.049140
 15 H s       :     0.606019  s :     0.606019
      pz      :     0.133462  p :     0.433581
      px      :     0.156897
      py      :     0.143222
      dz2     :     0.033702  d :     0.306301
      dxz     :     0.058785
      dyz     :     0.051791
      dx2y2   :     0.094448
      dxy     :     0.067574
 16 C s       :     2.489026  s :     2.489026
      pz      :     0.793583  p :     2.180118
      px      :     0.652683
      py      :     0.733851
      dz2     :     0.329914  d :     1.374920
      dxz     :     0.251212
      dyz     :     0.286370
      dx2y2   :     0.247390
      dxy     :     0.260034
      f0      :     0.114414  f :     0.757900
      f+1     :     0.087707
      f-1     :     0.159004
      f+2     :     0.103258
      f-2     :     0.134613
      f+3     :     0.094184
      f-3     :     0.064719
 17 C s       :     2.465565  s :     2.465565
      pz      :     0.744640  p :     2.301369
      px      :     0.774063
      py      :     0.782666
      dz2     :     0.126476  d :     0.485470
      dxz     :     0.137439
      dyz     :     0.072614
      dx2y2   :     0.051912
      dxy     :     0.097029
      f0      :     0.036176  f :     0.184841
      f+1     :     0.036265
      f-1     :     0.044058
      f+2     :     0.027514
      f-2     :     0.020302
      f+3     :     0.013537
      f-3     :     0.006989
 18 O s       :     3.179714  s :     3.179714
      pz      :     1.403269  p :     4.078231
      px      :     1.330204
      py      :     1.344758
      dz2     :     0.061433  d :     0.245472
      dxz     :     0.038968
      dyz     :     0.063000
      dx2y2   :     0.034567
      dxy     :     0.047504
      f0      :     0.008582  f :     0.076985
      f+1     :     0.004852
      f-1     :     0.021703
      f+2     :     0.013323
      f-2     :     0.012611
      f+3     :     0.009324
      f-3     :     0.006590
 19 H s       :     0.632664  s :     0.632664
      pz      :     0.081154  p :     0.315496
      px      :     0.095345
      py      :     0.138997
      dz2     :     0.021329  d :     0.227072
      dxz     :     0.025936
      dyz     :     0.056286
      dx2y2   :     0.058368
      dxy     :     0.065152
 20 H s       :     0.632219  s :     0.632219
      pz      :     0.106271  p :     0.315157
      px      :     0.120771
      py      :     0.088116
      dz2     :     0.072986  d :     0.227032
      dxz     :     0.042961
      dyz     :     0.027774
      dx2y2   :     0.025666
      dxy     :     0.057644
 21 H s       :     0.640438  s :     0.640438
      pz      :     0.080955  p :     0.312754
      px      :     0.113932
      py      :     0.117866
      dz2     :     0.027925  d :     0.230224
      dxz     :     0.049818
      dyz     :     0.030339
      dx2y2   :     0.080586
      dxy     :     0.041556


                      *****************************
                      * MAYER POPULATION ANALYSIS *
                      *****************************

  NA   - Mulliken gross atomic population
  ZA   - Total nuclear charge
  QA   - Mulliken gross atomic charge
  VA   - Mayer's total valence
  BVA  - Mayer's bonded valence
  FA   - Mayer's free valence

  ATOM       NA         ZA         QA         VA         BVA        FA
  0 C      5.9759     6.0000     0.0241     3.4371     3.4371    -0.0000
  1 N      8.1091     7.0000    -1.1091     0.7692     0.7692     0.0000
  2 N      5.9626     7.0000     1.0374     0.9081     0.9081    -0.0000
  3 C      6.1397     6.0000    -0.1397     3.2436     3.2436     0.0000
  4 N      7.2322     7.0000    -0.2322     1.6403     1.6403     0.0000
  5 S     15.6653    16.0000     0.3347     1.8891     1.8891     0.0000
  6 S     13.8090    16.0000     2.1910     4.3998     4.3998     0.0000
  7 O      8.9184     8.0000    -0.9184     1.6205     1.6205     0.0000
  8 O      8.8951     8.0000    -0.8951     1.5682     1.5682     0.0000
  9 N      7.5798     7.0000    -0.5798     3.0179     3.0179    -0.0000
 10 H      0.8451     1.0000     0.1549     1.0814     1.0814    -0.0000
 11 C      6.7945     6.0000    -0.7945     3.2152     3.2152     0.0000
 12 H      0.5663     1.0000     0.4337     0.8584     0.8584     0.0000
 13 H      0.6622     1.0000     0.3378     1.0265     1.0265     0.0000
 14 H      0.6617     1.0000     0.3383     1.0286     1.0286     0.0000
 15 H      0.8564     1.0000     0.1436     1.0862     1.0862    -0.0000
 16 C      5.6510     6.0000     0.3490     2.8259     2.8259    -0.0000
 17 C      6.8266     6.0000    -0.8266     3.5485     3.5485    -0.0000
 18 O      8.7498     8.0000    -0.7498     1.4464     1.4464    -0.0000
 19 H      0.7388     1.0000     0.2612     1.0646     1.0646    -0.0000
 20 H      0.7331     1.0000     0.2669     1.0602     1.0602    -0.0000
 21 H      0.6276     1.0000     0.3724     0.8917     0.8917    -0.0000

  Mayer bond orders larger than 0.100000
B(  0-C ,  1-N ) :   1.7427 B(  0-C ,  5-S ) :   0.8530 B(  0-C ,  6-S ) :   0.6824 
B(  1-N ,  2-N ) :  -1.0861 B(  2-N ,  3-C ) :   1.0655 B(  2-N , 11-C ) :   0.8401 
B(  3-C ,  4-N ) :   1.0210 B(  3-C ,  5-S ) :   1.0782 B(  3-C , 11-C ) :  -0.1110 
B(  3-C , 16-C ) :  -0.1126 B(  3-C , 18-O ) :   0.2183 B(  4-N , 11-C ) :  -0.1204 
B(  4-N , 16-C ) :   0.8760 B(  4-N , 18-O ) :  -0.1414 B(  5-S , 18-O ) :  -0.1183 
B(  6-S ,  7-O ) :   1.3128 B(  6-S ,  8-O ) :   1.3243 B(  6-S ,  9-N ) :   0.9133 
B(  7-O ,  9-N ) :   0.1169 B(  9-N , 10-H ) :   0.9520 B(  9-N , 15-H ) :   0.9565 
B( 11-C , 12-H ) :   0.7907 B( 11-C , 13-H ) :   0.9222 B( 11-C , 14-H ) :   0.9188 
B( 16-C , 17-C ) :   0.6082 B( 16-C , 18-O ) :   1.4659 B( 17-C , 19-H ) :   1.0127 
B( 17-C , 20-H ) :   1.0038 B( 17-C , 21-H ) :   0.8683 

-------
TIMINGS
-------

Total SCF time: 0 days 0 hours 3 min 24 sec 

Total time                  ....     204.785 sec
Sum of individual times     ....     202.681 sec  ( 99.0%)

Fock matrix formation       ....     195.781 sec  ( 95.6%)
  Split-RI-J                ....      11.681 sec  (  6.0% of F)
  Chain of spheres X        ....     161.658 sec  ( 82.6% of F)
  XC integration            ....      21.582 sec  ( 11.0% of F)
    Basis function eval.    ....       3.813 sec  ( 17.7% of XC)
    Density eval.           ....       8.287 sec  ( 38.4% of XC)
    XC-Functional eval.     ....       0.215 sec  (  1.0% of XC)
    XC-Potential eval.      ....       7.792 sec  ( 36.1% of XC)
Diagonalization             ....       1.340 sec  (  0.7%)
Density matrix formation    ....       0.128 sec  (  0.1%)
Population analysis         ....       0.146 sec  (  0.1%)
Initial guess               ....       1.109 sec  (  0.5%)
Orbital Transformation      ....       0.000 sec  (  0.0%)
Orbital Orthonormalization  ....       0.000 sec  (  0.0%)
DIIS solution               ....       0.659 sec  (  0.3%)
SOSCF solution              ....       1.281 sec  (  0.6%)
Grid generation             ....       2.236 sec  (  1.1%)

Maximum memory used throughout the entire SCF-calculation: 187.1 MB


           ************************************************************
           *        Program running with 8 parallel MPI-processes     *
           *              working on a common directory               *
           ************************************************************

------------------------------------------------------------------------------
                                ORCA  MP2 
------------------------------------------------------------------------------

Freezing NCore=44 chemical core electrons

   <<< Use J-auxbasis for calculation of Separable RI-J derivative contributions (Dim=778) >>> 


-------------
RI-MP2 ENERGY
-------------
Dimension of the basis                    ...  836
Memory devoted to MP2                     ... 5000 MB   
Data format for buffers                   ... DOUBLE
Compression type for matrix containers    ... UNCOMPRESSED
Scaling for aa/bb pairs                   ...   2.500e-01
Scaling for ab pairs                      ...   5.300e-01
Overall scaling of the MP2 energy         ...   1.000e+00
Calculating two index integrals           ... done (    0.038 sec)
Cholesky decomposition of V**-1           ... done (    0.304 sec)

-----------------
RI-TRANSFORMATION (AUX index driven)
-----------------

Dimension of the orbital-basis         ... 836
Dimension of the aux-basis             ... 1934
Transformation of internal/external MOs...   22-  60 to   61- 835
Number Format for Storage              ... Double (8 Byte)
Integral mode                          ... Direct

First Phase: integral generation and transformation of MO indices
  Aux angular momentum 0               ... done (    0.434 sec)
  Aux angular momentum 1               ... done (    0.748 sec)
  Aux angular momentum 2               ... done (    1.022 sec)
  Aux angular momentum 3               ... done (    1.031 sec)
  Aux angular momentum 4               ... done (    0.552 sec)
Closing buffer VIA ( 0.44 GB; CompressionRatio= 1.00)
  Phase 1 completed in     4.072 sec
Second Phase: sorting and transformation of aux index

IA-Transformation
Memory available                       ... 4910 MB 
Max. # MO pairs treated in a batch     ... 5    
# of internal orbitals                 ... 39
# batches for internal orbitals        ... 1
Closing buffer IAV ( 0.44 GB; CompressionRatio= 1.00)
(ia|v) transformation done in     0.664 sec

  Phase 2 completed in     0.806 sec
RI-Integral transformation completed in     4.882 sec
Opening buffers                              ... done

Starting loop over batches of integrals:

Operator 0  - window                       ... ( 22- 60)x( 61-835)
Operator 0  - Memory available             ...  5000 MB
Operator 0  - Memory needed per MO         ...  11.4 MB
Operator 0  - Number of orbitals per batch ... 5
Operator 0  - Number of batches            ... 1

OPERATOR  0   PASS   0:  MOs    22 ...   26 +   27 ...   31 +   32 ...   36 +   37 ...   41
                            +   42 ...   46 +   47 ...   51 +   52 ...   56 +   57 ...   60
  Reading integrals       ... ok
  Internal MO  24
Time spent in pair loops =     0.752 sec
Deleting buffer (Ka|jb)[aa] ...done

-----------------------------------------------
 RI-MP2 CORRELATION ENERGY:     -1.416263508 Eh
-----------------------------------------------


-------
TIMINGS
-------

Total time                :   12.911 sec
Integral trafo            :    4.897 sec ( 37.9%)
I/O of integrals          :    0.035 sec (  0.3%)
K(i,j) Operators          :    0.572 sec (  4.4%)
T(i,j) pair energies      :    0.091 sec (  0.7%)
V-calculation             :    0.038 sec (  0.3%)
V**(-1/2)                 :    0.304 sec (  2.4%)
Gamma(ia|P)               :    0.000 sec (  0.0%)
Gamma-Trafo               :    0.000 sec (  0.0%)
D(virtual)                :    0.000 sec (  0.0%)
D(internal)               :    0.000 sec (  0.0%)
W(virtual)                :    0.000 sec (  0.0%)
W(internal)               :    0.000 sec (  0.0%)
L(virtual)                :    0.000 sec (  0.0%)
L(internal)               :    0.000 sec (  0.0%)
G(D)                      :    0.000 sec (  0.0%)
G(Z)                      :    0.000 sec (  0.0%)
Z-Vector Solution         :    0.000 sec (  0.0%)
3-Index Derivative        :    0.000 sec (  0.0%)
2-Index Derivative        :    0.000 sec (  0.0%)
Separable Gradient (RIJ)  :    0.000 sec (  0.0%)
Separable Gradient (COSX) :    0.000 sec (  0.0%)


---------------------------------------
MP2 TOTAL ENERGY:    -1434.981508477 Eh
---------------------------------------

Maximum memory used throughout the entire MP2-calculation: 213.8 MB


-------------------------------------------------------------------------------
                          DFT DISPERSION CORRECTION                            
                                                                               
                              DFTD3 V3.1  Rev 1                                
                          USING Becke-Johnson damping                          
-------------------------------------------------------------------------------
The DSD-PBEP86 functional is recognized
Active option DFTDOPT                   ...         4   

molecular C6(AA) [au] = 7546.383876 


            DFT-D V3
 parameters
 s6 scaling factor         :     0.4180 
 a1 scaling factor         :     0.0000 
 s8 scaling factor         :     0.0000 
 a2 scaling factor         :     5.6500 
 ad hoc parameters k1-k3   :    16.0000     1.3333    -4.0000 

 Edisp/kcal,au: -10.557006630282  -0.016823659149 
 E6   /kcal   : -10.557006630 
 E8   /kcal   :  -0.000000000 
 % E8         :   0.000000000 

-------------------------   ----------------
Dispersion correction           -0.016823659
-------------------------   ----------------


-------------------------   --------------------
FINAL SINGLE POINT ENERGY     -1434.998332135786
-------------------------   --------------------


                            ***************************************
                            *     ORCA property calculations      *
                            ***************************************


  WARNING: The energy has been calculated at the MP2 level but the densities
           used in the property calculations are still SCF densities
           MP2 response densities have not been calculated 
           use %mp2 Density relaxed end
           or  %mp2 Density unrelaxed end

                                    ---------------------
                                    Active property flags
                                    ---------------------
   (+) Dipole Moment


------------------------------------------------------------------------------
                       ORCA ELECTRIC PROPERTIES CALCULATION
------------------------------------------------------------------------------

Dipole Moment Calculation                       ... on
Quadrupole Moment Calculation                   ... off
Polarizability Calculation                      ... off
GBWName                                         ... HA.26.avtz.gbw
Electron density                                ... HA.26.avtz.scfp
The origin for moment calculation is the CENTER OF MASS  = (-0.584642,  0.911660 -2.721340)

-------------
DIPOLE MOMENT
-------------
                                X             Y             Z
Electronic contribution:     -1.76393      -7.19178      11.63673
Nuclear contribution   :      1.26891       9.82549     -12.64029
                        -----------------------------------------
Total Dipole Moment    :     -0.49502       2.63371      -1.00356
                        -----------------------------------------
Magnitude (a.u.)       :      2.86158
Magnitude (Debye)      :      7.27355



--------------------
Rotational spectrum 
--------------------
 
Rotational constants in cm-1:     0.041160     0.010674     0.008982 
Rotational constants in MHz :  1233.953084   320.003108   269.275121 

 Dipole components along the rotational axes: 
x,y,z [a.u.] :    -0.770216     2.635160    -0.807044 
x,y,z [Debye]:    -1.957732     6.698045    -2.051343 

 

Timings for individual modules:

Sum of individual times         ...      223.026 sec (=   3.717 min)
GTO integral calculation        ...        2.713 sec (=   0.045 min)   1.2 %
SCF iterations                  ...      206.085 sec (=   3.435 min)  92.4 %
MP2 module                      ...       14.228 sec (=   0.237 min)   6.4 %
                             ****ORCA TERMINATED NORMALLY****
TOTAL RUN TIME: 0 days 0 hours 3 minutes 45 seconds 303 msec
