
                                 *****************
                                 * O   R   C   A *
                                 *****************

                                            #,                                       
                                            ###                                      
                                            ####                                     
                                            #####                                    
                                            ######                                   
                                           ########,                                 
                                     ,,################,,,,,                         
                               ,,#################################,,                 
                          ,,##########################################,,             
                       ,#########################################, ''#####,          
                    ,#############################################,,   '####,        
                  ,##################################################,,,,####,       
                ,###########''''           ''''###############################       
              ,#####''   ,,,,##########,,,,          '''####'''          '####       
            ,##' ,,,,###########################,,,                        '##       
           ' ,,###''''                  '''############,,,                           
         ,,##''                                '''############,,,,        ,,,,,,###''
      ,#''                                            '''#######################'''  
     '                                                          ''''####''''         
             ,#######,   #######,   ,#######,      ##                                
            ,#'     '#,  ##    ##  ,#'     '#,    #''#        ######   ,####,        
            ##       ##  ##   ,#'  ##            #'  '#       #        #'  '#        
            ##       ##  #######   ##           ,######,      #####,   #    #        
            '#,     ,#'  ##    ##  '#,     ,#' ,#      #,         ##   #,  ,#        
             '#######'   ##     ##  '#######'  #'      '#     #####' # '####'        



                  #######################################################
                  #                        -***-                        #
                  #          Department of theory and spectroscopy      #
                  #    Directorship and core code : Frank Neese         #
                  #        Max Planck Institute fuer Kohlenforschung    #
                  #                Kaiser Wilhelm Platz 1               #
                  #                 D-45470 Muelheim/Ruhr               #
                  #                      Germany                        #
                  #                                                     #
                  #                  All rights reserved                #
                  #                        -***-                        #
                  #######################################################


                         Program Version 5.0.3 -  RELEASE  -


 With contributions from (in alphabetic order):
   Daniel Aravena         : Magnetic Suceptibility
   Michael Atanasov       : Ab Initio Ligand Field Theory (pilot matlab implementation)
   Alexander A. Auer      : GIAO ZORA, VPT2 properties, NMR spectrum
   Ute Becker             : Parallelization
   Giovanni Bistoni       : ED, misc. LED, open-shell LED, HFLD
   Martin Brehm           : Molecular dynamics
   Dmytro Bykov           : SCF Hessian
   Vijay G. Chilkuri      : MRCI spin determinant printing, contributions to CSF-ICE
   Dipayan Datta          : RHF DLPNO-CCSD density
   Achintya Kumar Dutta   : EOM-CC, STEOM-CC
   Dmitry Ganyushin       : Spin-Orbit,Spin-Spin,Magnetic field MRCI
   Miquel Garcia          : C-PCM and meta-GGA Hessian, CC/C-PCM, Gaussian charge scheme
   Yang Guo               : DLPNO-NEVPT2, F12-NEVPT2, CIM, IAO-localization
   Andreas Hansen         : Spin unrestricted coupled pair/coupled cluster methods
   Benjamin Helmich-Paris : MC-RPA, TRAH-SCF, COSX integrals
   Lee Huntington         : MR-EOM, pCC
   Robert Izsak           : Overlap fitted RIJCOSX, COSX-SCS-MP3, EOM
   Marcus Kettner         : VPT2
   Christian Kollmar      : KDIIS, OOCD, Brueckner-CCSD(T), CCSD density, CASPT2, CASPT2-K
   Simone Kossmann        : Meta GGA functionals, TD-DFT gradient, OOMP2, MP2 Hessian
   Martin Krupicka        : Initial AUTO-CI
   Lucas Lang             : DCDCAS
   Marvin Lechner         : AUTO-CI (C++ implementation), FIC-MRCC
   Dagmar Lenk            : GEPOL surface, SMD
   Dimitrios Liakos       : Extrapolation schemes; Compound Job, initial MDCI parallelization
   Dimitrios Manganas     : Further ROCIS development; embedding schemes
   Dimitrios Pantazis     : SARC Basis sets
   Anastasios Papadopoulos: AUTO-CI, single reference methods and gradients
   Taras Petrenko         : DFT Hessian,TD-DFT gradient, ASA, ECA, R-Raman, ABS, FL, XAS/XES, NRVS
   Peter Pinski           : DLPNO-MP2, DLPNO-MP2 Gradient
   Christoph Reimann      : Effective Core Potentials
   Marius Retegan         : Local ZFS, SOC
   Christoph Riplinger    : Optimizer, TS searches, QM/MM, DLPNO-CCSD(T), (RO)-DLPNO pert. Triples
   Tobias Risthaus        : Range-separated hybrids, TD-DFT gradient, RPA, STAB
   Michael Roemelt        : Original ROCIS implementation
   Masaaki Saitow         : Open-shell DLPNO-CCSD energy and density
   Barbara Sandhoefer     : DKH picture change effects
   Avijit Sen             : IP-ROCIS
   Kantharuban Sivalingam : CASSCF convergence, NEVPT2, FIC-MRCI
   Bernardo de Souza      : ESD, SOC TD-DFT
   Georgi Stoychev        : AutoAux, RI-MP2 NMR, DLPNO-MP2 response
   Willem Van den Heuvel  : Paramagnetic NMR
   Boris Wezisla          : Elementary symmetry handling
   Frank Wennmohs         : Technical directorship


 We gratefully acknowledge several colleagues who have allowed us to
 interface, adapt or use parts of their codes:
   Stefan Grimme, W. Hujo, H. Kruse, P. Pracht,  : VdW corrections, initial TS optimization,
                  C. Bannwarth, S. Ehlert          DFT functionals, gCP, sTDA/sTD-DF
   Ed Valeev, F. Pavosevic, A. Kumar             : LibInt (2-el integral package), F12 methods
   Garnet Chan, S. Sharma, J. Yang, R. Olivares  : DMRG
   Ulf Ekstrom                                   : XCFun DFT Library
   Mihaly Kallay                                 : mrcc  (arbitrary order and MRCC methods)
   Jiri Pittner, Ondrej Demel                    : Mk-CCSD
   Frank Weinhold                                : gennbo (NPA and NBO analysis)
   Christopher J. Cramer and Donald G. Truhlar   : smd solvation model
   Lars Goerigk                                  : TD-DFT with DH, B97 family of functionals
   V. Asgeirsson, H. Jonsson                     : NEB implementation
   FAccTs GmbH                                   : IRC, NEB, NEB-TS, DLPNO-Multilevel, CI-OPT
                                                   MM, QMMM, 2- and 3-layer-ONIOM, Crystal-QMMM,
                                                   LR-CPCM, SF, NACMEs, symmetry and pop. for TD-DFT,
                                                   nearIR, NL-DFT gradient (VV10), updates on ESD,
                                                   ML-optimized integration grids
   S Lehtola, MJT Oliveira, MAL Marques          : LibXC Library
   Liviu Ungur et al                             : ANISO software


 Your calculation uses the libint2 library for the computation of 2-el integrals
 For citations please refer to: http://libint.valeyev.net

 Your ORCA version has been built with support for libXC version: 5.1.0
 For citations please refer to: https://tddft.org/programs/libxc/

 This ORCA versions uses:
   CBLAS   interface :  Fast vector & matrix operations
   LAPACKE interface :  Fast linear algebra routines
   SCALAPACK package :  Parallel linear algebra routines
   Shared memory     :  Shared parallel matrices
   BLAS/LAPACK       :  OpenBLAS 0.3.15  USE64BITINT DYNAMIC_ARCH NO_AFFINITY SkylakeX SINGLE_THREADED
        Core in use  :  SkylakeX
   Copyright (c) 2011-2014, The OpenBLAS Project


Your calculation utilizes the atom-pairwise dispersion correction
with the Becke-Johnson damping scheme (D3BJ)
Cite in your paper:
S.Grimme, S.Ehrlich, L.Goerigk, J Comput Chem, (2011), 32, 1456–1465 
S.Grimme, J.Antony, S.Ehrlich and H.Krieg, J.Chem.Phys., 132, (2010), 154104 
   

================================================================================

----- Orbital basis set information -----
Your calculation utilizes the basis: aug-cc-pVTZ 
    H, B-Ne : Obtained from the ccRepo (grant-hill.group.shef.ac.uk/ccrepo) Feb. 2017
              R. A. Kendall, T. H. Dunning, Jr., R. J. Harrison, J. Chem. Phys. 96, 6796 (1992)
         He : Obtained from the ccRepo (grant-hill.group.shef.ac.uk/ccrepo) Feb. 2017
              D. E. Woon, T. H. Dunning, Jr., J. Chem. Phys. 100, 2975 (1994)
  Li-Be, Na : Obtained from the ccRepo (grant-hill.group.shef.ac.uk/ccrepo) Feb. 2017
              B. P. Prascher, D. E. Woon, K. A. Peterson, T. H. Dunning, Jr., A. K. Wilson, Theor. Chem. Acc. 128, 69 (2011)
         Mg : Obtained from the Peterson Research Group Website (tyr0.chem.wsu.edu/~kipeters) Feb. 2017
              B. P. Prascher, D. E. Woon, K. A. Peterson, T. H. Dunning, Jr., A. K. Wilson, Theor. Chem. Acc. 128, 69 (2011)
      Al-Ar : Obtained from the ccRepo (grant-hill.group.shef.ac.uk/ccrepo) Feb. 2017
              D. E. Woon, T. H. Dunning, Jr., J. Chem. Phys. 98, 1358 (1993)
      Sc-Zn : Obtained from the ccRepo (grant-hill.group.shef.ac.uk/ccrepo) Feb. 2017
              N. B. Balabanov, K. A. Peterson, J. Chem. Phys. 123, 064107 (2005)
              N. B. Balabanov, K. A. Peterson, J. Chem. Phys. 125, 074110 (2006)
      Ga-Kr : Obtained from the ccRepo (grant-hill.group.shef.ac.uk/ccrepo) Feb. 2017
              A. K. Wilson, D. E. Woon, K. A. Peterson, T. H. Dunning, Jr., J. Chem. Phys. 110, 7667 (1999)
     Ag, Au : Obtained from the Peterson Research Group Website (tyr0.chem.wsu.edu/~kipeters) Feb. 2017
              K. A. Peterson, C. Puzzarini, Theor. Chem. Acc. 114, 283 (2005)

----- AuxJ basis set information -----
Your calculation utilizes the auxiliary basis: def2/J
   F. Weigend, Phys. Chem. Chem. Phys. 8, 1057 (2006).

----- AuxC basis set information -----
Your calculation utilizes the auxiliary basis: aug-cc-pVTZ/C 
  H-He, B-F, Al-Ar, Ga-Kr : Obtained from the EMSL Basis Set Exchange (bse.pnl.gov) Feb. 2017
                            F. Weigend, A. Kohn, C. Hattig, J. Chem. Phys. 116, 3175 (2002)
                   Be, Mg : Obtained from the TURBOMOLE 7.0 basis set library
                            C. Haettig, Phys. Chem. Chem. Phys. 7, 59 (2005)
                       Ne : Obtained from the EMSL Basis Set Exchange (bse.pnl.gov) Feb. 2017
                            C. Haettig, Phys. Chem. Chem. Phys. 7, 59 (2005)
                            F. Weigend, A. Kohn, C. Hattig, J. Chem. Phys. 116, 3175 (2002)
                    Sc-Zn : Obtained from the EMSL Basis Set Exchange (bse.pnl.gov) Feb. 2017
                            J. G. Hill, J. A. Platts, J. Chem. Phys. 128, 044104 (2008)

================================================================================
                                        WARNINGS
                       Please study these warnings very carefully!
================================================================================


WARNING: No MP2 level density has been requested!
         To caclulate MP2 level properties use
         %mp2 Density relaxed end
         or
         %mp2 Density unrelaxed end
         Otherwise for double-hybrid DFT only the energy is correct!

WARNING: There are different parametrizations of Gershom Martin's DSD-DFs
         for use with and without D3(BJ)!
         You are using the D3(BJ) parametrized version,
         consistent with the GMTKN55 benchmark (L. Goerigk et al., PCCP 2017, 19, 32184)

WARNING: The frozen-core approximation is turned on by default for 
         the MP2 part of double-hybrid DFT.

INFO   : the flag for use of the SHARK integral package has been found!

================================================================================
                                       INPUT FILE
================================================================================
NAME = HA.20.avtz.com
|  1> !PAL8
|  2> !RI-DSD-PBEP86 D3BJ aug-cc-pVTZ aug-cc-pVTZ/C TightSCF
|  3> %maxcore 5000
|  4> 
|  5> 
|  6> * xyz 0 1
|  7> C -1.9052835689  0.3387669983 -1.5186562357
|  8> S -2.6429615291  0.204735848  0.0866139173
|  9> O -3.7962251204 -0.6608985131 -0.0619531124
| 10> O -1.5554323333 -0.0439329369  1.0101071762
| 11> N -3.2470555062  1.6963413703  0.4823164913
| 12> H -4.0275078733  1.9823255643 -0.1030076246
| 13> H -2.5293069047  2.410630779  0.5731647206
| 14> S -2.8464279972  0.1621194795 -2.9585155203
| 15> C -1.4733497695  0.4929359454 -3.9295919727
| 16> C -0.3603000254  0.7109653065 -3.1675578289
| 17> C -0.5949708128  0.6270867461 -1.766282605
| 18> S  1.2247941348  1.0627124685 -3.8867239664
| 19> C  2.10578214 -0.4785250983 -3.7599496988
| 20> O  1.8830569315  2.0274522751 -3.0105036778
| 21> O  0.9829939139  1.3356215101 -5.3011909506
| 22> C  2.9101594053 -0.7077674058 -2.6490897594
| 23> C  3.5831754815 -1.9241659949 -2.5522034004
| 24> C  3.4489888901 -2.8959195575 -3.5453556973
| 25> C  2.6416679106 -2.6341838917 -4.6592671052
| 26> C  1.9657475466 -1.4253845642 -4.7734657073
| 27> H -1.5334300333  0.5111153562 -5.0107372879
| 28> H  0.1543473309  0.7693765921 -0.9950473861
| 29> H  3.0244878461  0.0640195344 -1.8936758387
| 30> H  4.2276013934 -2.1138652993 -1.6975505084
| 31> H  1.3514221578 -1.2018723013 -5.6409326446
| 32> C  4.1483380928 -4.231686013 -3.4140829729
| 33> N  4.681380157 -4.7084836063 -4.67925667
| 34> H  2.5683969518 -3.3854064863 -5.4404851802
| 35> H  3.4217927528 -4.9739260086 -3.0580391078
| 36> H  4.9370964546 -4.1599551724 -2.6402087175
| 37> C  5.799299059 -3.8866520822 -5.1383683272
| 38> C  5.1036587136 -6.1025831368 -4.5885190909
| 39> C  5.6255564641 -6.569604903 -5.9394833257
| 40> C  6.3059969494 -4.4087867658 -6.474273041
| 41> O  6.7012796733 -5.7628884357 -6.3750212127
| 42> H  6.6258665354 -3.9045944161 -4.4014520095
| 43> H  5.4638567283 -2.8496844605 -5.2495714945
| 44> H  4.2452439072 -6.7157758168 -4.2912475939
| 45> H  5.8993123193 -6.2297841545 -3.8289313395
| 46> H  4.8103915407 -6.534456674 -6.6794209225
| 47> H  6.0061696402 -7.5916880891 -5.8755452636
| 48> H  7.1857267912 -3.8492144591 -6.8001210495
| 49> H  5.5138646611 -4.3071085302 -7.2329574579
| 50> *
| 51> 
| 52>                          ****END OF INPUT****
================================================================================

                       ****************************
                       * Single Point Calculation *
                       ****************************

---------------------------------
CARTESIAN COORDINATES (ANGSTROEM)
---------------------------------
  C     -1.905284    0.338767   -1.518656
  S     -2.642962    0.204736    0.086614
  O     -3.796225   -0.660899   -0.061953
  O     -1.555432   -0.043933    1.010107
  N     -3.247056    1.696341    0.482316
  H     -4.027508    1.982326   -0.103008
  H     -2.529307    2.410631    0.573165
  S     -2.846428    0.162119   -2.958516
  C     -1.473350    0.492936   -3.929592
  C     -0.360300    0.710965   -3.167558
  C     -0.594971    0.627087   -1.766283
  S      1.224794    1.062712   -3.886724
  C      2.105782   -0.478525   -3.759950
  O      1.883057    2.027452   -3.010504
  O      0.982994    1.335622   -5.301191
  C      2.910159   -0.707767   -2.649090
  C      3.583175   -1.924166   -2.552203
  C      3.448989   -2.895920   -3.545356
  C      2.641668   -2.634184   -4.659267
  C      1.965748   -1.425385   -4.773466
  H     -1.533430    0.511115   -5.010737
  H      0.154347    0.769377   -0.995047
  H      3.024488    0.064020   -1.893676
  H      4.227601   -2.113865   -1.697551
  H      1.351422   -1.201872   -5.640933
  C      4.148338   -4.231686   -3.414083
  N      4.681380   -4.708484   -4.679257
  H      2.568397   -3.385406   -5.440485
  H      3.421793   -4.973926   -3.058039
  H      4.937096   -4.159955   -2.640209
  C      5.799299   -3.886652   -5.138368
  C      5.103659   -6.102583   -4.588519
  C      5.625556   -6.569605   -5.939483
  C      6.305997   -4.408787   -6.474273
  O      6.701280   -5.762888   -6.375021
  H      6.625867   -3.904594   -4.401452
  H      5.463857   -2.849684   -5.249571
  H      4.245244   -6.715776   -4.291248
  H      5.899312   -6.229784   -3.828931
  H      4.810392   -6.534457   -6.679421
  H      6.006170   -7.591688   -5.875545
  H      7.185727   -3.849214   -6.800121
  H      5.513865   -4.307109   -7.232957

----------------------------
CARTESIAN COORDINATES (A.U.)
----------------------------
  NO LB      ZA    FRAG     MASS         X           Y           Z
   0 C     6.0000    0    12.011   -3.600464    0.640177   -2.869844
   1 S    16.0000    0    32.060   -4.994473    0.386895    0.163677
   2 O     8.0000    0    15.999   -7.173826   -1.248917   -0.117074
   3 O     8.0000    0    15.999   -2.939341   -0.083021    1.908826
   4 N     7.0000    0    14.007   -6.136046    3.205621    0.911446
   5 H     1.0000    0     1.008   -7.610887    3.746052   -0.194656
   6 H     1.0000    0     1.008   -4.779697    4.555432    1.083124
   7 S    16.0000    0    32.060   -5.378969    0.306361   -5.590784
   8 C     6.0000    0    12.011   -2.784228    0.931514   -7.425853
   9 C     6.0000    0    12.011   -0.680868    1.343530   -5.985817
  10 C     6.0000    0    12.011   -1.124332    1.185022   -3.337790
  11 S    16.0000    0    32.060    2.314525    2.008236   -7.344844
  12 C     6.0000    0    12.011    3.979352   -0.904281   -7.105275
  13 O     8.0000    0    15.999    3.558462    3.831330   -5.689027
  14 O     8.0000    0    15.999    1.857589    2.523959  -10.017799
  15 C     6.0000    0    12.011    5.499404   -1.337487   -5.006054
  16 C     6.0000    0    12.011    6.771220   -3.636147   -4.822965
  17 C     6.0000    0    12.011    6.517644   -5.472495   -6.699751
  18 C     6.0000    0    12.011    4.992029   -4.977886   -8.804739
  19 C     6.0000    0    12.011    3.714725   -2.693586   -9.020543
  20 H     1.0000    0     1.008   -2.897763    0.965868   -9.468921
  21 H     1.0000    0     1.008    0.291674    1.453911   -1.880367
  22 H     1.0000    0     1.008    5.715454    0.120979   -3.578529
  23 H     1.0000    0     1.008    7.989009   -3.994626   -3.207906
  24 H     1.0000    0     1.008    2.553818   -2.271209  -10.659818
  25 C     6.0000    0    12.011    7.839223   -7.996728   -6.451682
  26 N     7.0000    0    14.007    8.846526   -8.897745   -8.842514
  27 H     1.0000    0     1.008    4.853567   -6.397491  -10.281027
  28 H     1.0000    0     1.008    6.466251   -9.399358   -5.778856
  29 H     1.0000    0     1.008    9.329760   -7.861176   -4.989271
  30 C     6.0000    0    12.011   10.959087   -7.344708   -9.710109
  31 C     6.0000    0    12.011    9.644517  -11.532211   -8.671044
  32 C     6.0000    0    12.011   10.630761  -12.414754  -11.223997
  33 C     6.0000    0    12.011   11.916607   -8.331400  -12.234603
  34 O     8.0000    0    15.999   12.663583  -10.890281  -12.047044
  35 H     1.0000    0     1.008   12.521073   -7.378614   -8.317539
  36 H     1.0000    0     1.008   10.325193   -5.385123   -9.920252
  37 H     1.0000    0     1.008    8.022348  -12.690977   -8.109283
  38 H     1.0000    0     1.008   11.148085  -11.772586   -7.235632
  39 H     1.0000    0     1.008    9.090323  -12.348334  -12.622276
  40 H     1.0000    0     1.008   11.350016  -14.346211  -11.103171
  41 H     1.0000    0     1.008   13.579056   -7.273961  -12.850366
  42 H     1.0000    0     1.008   10.419694   -8.139256  -13.668309

--------------------------------
INTERNAL COORDINATES (ANGSTROEM)
--------------------------------
 C      0   0   0     0.000000000000     0.00000000     0.00000000
 S      1   0   0     1.771729490167     0.00000000     0.00000000
 O      2   1   0     1.449624751599   106.47254933     0.00000000
 O      2   1   3     1.448238832353   106.14604697   133.93205894
 N      2   1   3     1.657225722222   107.45899486   247.02858963
 H      5   2   1     1.016610632044   113.30116016    67.02449756
 H      5   2   1     1.016673898112   113.35041067   296.08128034
 S      1   2   3     1.729205580684   121.33902615    27.45353966
 C      8   1   2     1.713993240914    90.91849363   177.43266923
 C      9   8   1     1.366423276829   111.55464923     0.58373793
 C      1   2   3     1.364319102902   125.47269889   205.11903417
 S     10   9   8     1.775795454438   122.19812169   179.36159970
 C     12  10   9     1.779782238800   103.97291095   257.61704366
 O     12  10   9     1.460066710158   106.87409450   143.70764006
 O     12  10   9     1.460706521244   106.34441551    11.74559376
 C     13  12  10     1.390533935380   119.07843697   267.10673214
 C     16  13  12     1.393543373185   118.60813718   179.25885791
 C     17  16  13     1.395945024911   120.78028369   359.70232194
 C     18  17  16     1.400382571779   119.42106474     0.85884409
 C     19  18  17     1.389642210555   120.55443056   359.29075222
 H      9   8   1     1.082965983609   121.62802433   180.35859043
 H     11   1   2     1.084678682202   124.20421511     2.50627294
 H     16  13  12     1.085990913878   119.96243611   357.60388036
 H     17  16  13     1.087061243823   119.55681203   179.10754489
 H     20  19  18     1.086210063616   121.31312165   178.82313545
 C     18  17  16     1.513470798902   120.54820698   181.89527997
 N     26  18  17     1.453318365334   112.55236114   219.06362783
 H     19  18  17     1.086280673099   118.79533094   178.16445627
 H     26  18  17     1.097977948786   108.60204406    99.97307098
 H     26  18  17     1.107323995032   109.42612749   343.77402287
 C     27  26  18     1.461483232620   111.68734890    68.69321089
 C     27  26  18     1.459474559068   111.43085708   191.63614004
 C     32  27  26     1.521706593201   109.70618339   178.76585824
 C     31  27  26     1.521186636908   109.73404173   180.98979880
 O     33  32  27     1.413387820960   111.06551573    58.01508453
 H     31  27  26     1.107511345170   110.65555476    60.31868654
 H     31  27  26     1.095531628981   109.26523728   301.35285221
 H     32  27  26     1.096016234178   108.94522310    58.61974391
 H     32  27  26     1.107347421203   111.11650454   299.49725179
 H     33  32  27     1.101470334372   109.43774454   296.67785559
 H     33  32  27     1.092523915031   110.77171123   176.36539354
 H     34  31  27     1.092347328290   110.75642766   183.89868034
 H     34  31  27     1.101550756983   109.48985687    63.60675047

---------------------------
INTERNAL COORDINATES (A.U.)
---------------------------
 C      0   0   0     0.000000000000     0.00000000     0.00000000
 S      1   0   0     3.348083519808     0.00000000     0.00000000
 O      2   1   0     2.739393777476   106.47254933     0.00000000
 O      2   1   3     2.736774769657   106.14604697   133.93205894
 N      2   1   3     3.131702757090   107.45899486   247.02858963
 H      5   2   1     1.921115679395   113.30116016    67.02449756
 H      5   2   1     1.921235234939   113.35041067   296.08128034
 S      1   2   3     3.267724976740   121.33902615    27.45353966
 C      8   1   2     3.238977820720    90.91849363   177.43266923
 C      9   8   1     2.582165776222   111.55464923     0.58373793
 C      1   2   3     2.578189463761   125.47269889   205.11903417
 S     10   9   8     3.355767078750   122.19812169   179.36159970
 C     12  10   9     3.363301009349   103.97291095   257.61704366
 O     12  10   9     2.759126219454   106.87409450   143.70764006
 O     12  10   9     2.760335287185   106.34441551    11.74559376
 C     13  12  10     2.627728317792   119.07843697   267.10673214
 C     16  13  12     2.633415331061   118.60813718   179.25885791
 C     17  16  13     2.637953795093   120.78028369   359.70232194
 C     18  17  16     2.646339543379   119.42106474     0.85884409
 C     19  18  17     2.626043202086   120.55443056   359.29075222
 H      9   8   1     2.046509121374   121.62802433   180.35859043
 H     11   1   2     2.049745652665   124.20421511     2.50627294
 H     16  13  12     2.052225411157   119.96243611   357.60388036
 H     17  16  13     2.054248041625   119.55681203   179.10754489
 H     20  19  18     2.052639544142   121.31312165   178.82313545
 C     18  17  16     2.860045321611   120.54820698   181.89527997
 N     26  18  17     2.746373695879   112.55236114   219.06362783
 H     19  18  17     2.052772976728   118.79533094   178.16445627
 H     26  18  17     2.074877624289   108.60204406    99.97307098
 H     26  18  17     2.092539092130   109.42612749   343.77402287
 C     27  26  18     2.761803058970   111.68734890    68.69321089
 C     27  26  18     2.758007216063   111.43085708   191.63614004
 C     32  27  26     2.875608717332   109.70618339   178.76585824
 C     31  27  26     2.874626142336   109.73404173   180.98979880
 O     33  32  27     2.670915902633   111.06551573    58.01508453
 H     31  27  26     2.092893132582   110.65555476    60.31868654
 H     31  27  26     2.070254749822   109.26523728   301.35285221
 H     32  27  26     2.071170520927   108.94522310    58.61974391
 H     32  27  26     2.092583361177   111.11650454   299.49725179
 H     33  32  27     2.081477276602   109.43774454   296.67785559
 H     33  32  27     2.064570994168   110.77171123   176.36539354
 H     34  31  27     2.064237293589   110.75642766   183.89868034
 H     34  31  27     2.081629253311   109.48985687    63.60675047

---------------------
BASIS SET INFORMATION
---------------------
There are 5 groups of distinct atoms

 Group   1 Type C   : 19s6p3d2f contracted to 5s4p3d2f pattern {88111/3111/111/11}
 Group   2 Type S   : 42s17p3d2f contracted to 6s5p3d2f pattern {131313111/77111/111/11}
 Group   3 Type O   : 19s6p3d2f contracted to 5s4p3d2f pattern {88111/3111/111/11}
 Group   4 Type N   : 19s6p3d2f contracted to 5s4p3d2f pattern {88111/3111/111/11}
 Group   5 Type H   : 6s3p2d contracted to 4s3p2d pattern {3111/111/11}

Atom   0C    basis set group =>   1
Atom   1S    basis set group =>   2
Atom   2O    basis set group =>   3
Atom   3O    basis set group =>   3
Atom   4N    basis set group =>   4
Atom   5H    basis set group =>   5
Atom   6H    basis set group =>   5
Atom   7S    basis set group =>   2
Atom   8C    basis set group =>   1
Atom   9C    basis set group =>   1
Atom  10C    basis set group =>   1
Atom  11S    basis set group =>   2
Atom  12C    basis set group =>   1
Atom  13O    basis set group =>   3
Atom  14O    basis set group =>   3
Atom  15C    basis set group =>   1
Atom  16C    basis set group =>   1
Atom  17C    basis set group =>   1
Atom  18C    basis set group =>   1
Atom  19C    basis set group =>   1
Atom  20H    basis set group =>   5
Atom  21H    basis set group =>   5
Atom  22H    basis set group =>   5
Atom  23H    basis set group =>   5
Atom  24H    basis set group =>   5
Atom  25C    basis set group =>   1
Atom  26N    basis set group =>   4
Atom  27H    basis set group =>   5
Atom  28H    basis set group =>   5
Atom  29H    basis set group =>   5
Atom  30C    basis set group =>   1
Atom  31C    basis set group =>   1
Atom  32C    basis set group =>   1
Atom  33C    basis set group =>   1
Atom  34O    basis set group =>   3
Atom  35H    basis set group =>   5
Atom  36H    basis set group =>   5
Atom  37H    basis set group =>   5
Atom  38H    basis set group =>   5
Atom  39H    basis set group =>   5
Atom  40H    basis set group =>   5
Atom  41H    basis set group =>   5
Atom  42H    basis set group =>   5
---------------------------------
AUXILIARY/J BASIS SET INFORMATION
---------------------------------
There are 5 groups of distinct atoms

 Group   1 Type C   : 12s5p4d2f1g contracted to 6s4p3d1f1g pattern {711111/2111/211/2/1}
 Group   2 Type S   : 14s5p5d2f1g contracted to 8s4p3d1f1g pattern {71111111/2111/311/2/1}
 Group   3 Type O   : 12s5p4d2f1g contracted to 6s4p3d1f1g pattern {711111/2111/211/2/1}
 Group   4 Type N   : 12s5p4d2f1g contracted to 6s4p3d1f1g pattern {711111/2111/211/2/1}
 Group   5 Type H   : 5s2p1d contracted to 3s1p1d pattern {311/2/1}

Atom   0C    basis set group =>   1
Atom   1S    basis set group =>   2
Atom   2O    basis set group =>   3
Atom   3O    basis set group =>   3
Atom   4N    basis set group =>   4
Atom   5H    basis set group =>   5
Atom   6H    basis set group =>   5
Atom   7S    basis set group =>   2
Atom   8C    basis set group =>   1
Atom   9C    basis set group =>   1
Atom  10C    basis set group =>   1
Atom  11S    basis set group =>   2
Atom  12C    basis set group =>   1
Atom  13O    basis set group =>   3
Atom  14O    basis set group =>   3
Atom  15C    basis set group =>   1
Atom  16C    basis set group =>   1
Atom  17C    basis set group =>   1
Atom  18C    basis set group =>   1
Atom  19C    basis set group =>   1
Atom  20H    basis set group =>   5
Atom  21H    basis set group =>   5
Atom  22H    basis set group =>   5
Atom  23H    basis set group =>   5
Atom  24H    basis set group =>   5
Atom  25C    basis set group =>   1
Atom  26N    basis set group =>   4
Atom  27H    basis set group =>   5
Atom  28H    basis set group =>   5
Atom  29H    basis set group =>   5
Atom  30C    basis set group =>   1
Atom  31C    basis set group =>   1
Atom  32C    basis set group =>   1
Atom  33C    basis set group =>   1
Atom  34O    basis set group =>   3
Atom  35H    basis set group =>   5
Atom  36H    basis set group =>   5
Atom  37H    basis set group =>   5
Atom  38H    basis set group =>   5
Atom  39H    basis set group =>   5
Atom  40H    basis set group =>   5
Atom  41H    basis set group =>   5
Atom  42H    basis set group =>   5
---------------------------------
AUXILIARY/C BASIS SET INFORMATION
---------------------------------
There are 5 groups of distinct atoms

 Group   1 Type C   : 9s7p6d4f2g contracted to 9s7p6d4f2g pattern {111111111/1111111/111111/1111/11}
 Group   2 Type S   : 11s9p8d6f3g contracted to 11s9p8d6f3g pattern {11111111111/111111111/11111111/111111/111}
 Group   3 Type O   : 9s7p6d4f2g contracted to 9s7p6d4f2g pattern {111111111/1111111/111111/1111/11}
 Group   4 Type N   : 9s7p6d4f2g contracted to 9s7p6d4f2g pattern {111111111/1111111/111111/1111/11}
 Group   5 Type H   : 5s4p3d2f contracted to 5s4p3d2f pattern {11111/1111/111/11}

Atom   0C    basis set group =>   1
Atom   1S    basis set group =>   2
Atom   2O    basis set group =>   3
Atom   3O    basis set group =>   3
Atom   4N    basis set group =>   4
Atom   5H    basis set group =>   5
Atom   6H    basis set group =>   5
Atom   7S    basis set group =>   2
Atom   8C    basis set group =>   1
Atom   9C    basis set group =>   1
Atom  10C    basis set group =>   1
Atom  11S    basis set group =>   2
Atom  12C    basis set group =>   1
Atom  13O    basis set group =>   3
Atom  14O    basis set group =>   3
Atom  15C    basis set group =>   1
Atom  16C    basis set group =>   1
Atom  17C    basis set group =>   1
Atom  18C    basis set group =>   1
Atom  19C    basis set group =>   1
Atom  20H    basis set group =>   5
Atom  21H    basis set group =>   5
Atom  22H    basis set group =>   5
Atom  23H    basis set group =>   5
Atom  24H    basis set group =>   5
Atom  25C    basis set group =>   1
Atom  26N    basis set group =>   4
Atom  27H    basis set group =>   5
Atom  28H    basis set group =>   5
Atom  29H    basis set group =>   5
Atom  30C    basis set group =>   1
Atom  31C    basis set group =>   1
Atom  32C    basis set group =>   1
Atom  33C    basis set group =>   1
Atom  34O    basis set group =>   3
Atom  35H    basis set group =>   5
Atom  36H    basis set group =>   5
Atom  37H    basis set group =>   5
Atom  38H    basis set group =>   5
Atom  39H    basis set group =>   5
Atom  40H    basis set group =>   5
Atom  41H    basis set group =>   5
Atom  42H    basis set group =>   5


           ************************************************************
           *        Program running with 8 parallel MPI-processes     *
           *              working on a common directory               *
           ************************************************************
------------------------------------------------------------------------------
                           ORCA GTO INTEGRAL CALCULATION
                           -- RI-GTO INTEGRALS CHOSEN --
------------------------------------------------------------------------------
------------------------------------------------------------------------------
                   ___                                                        
                  /   \      - P O W E R E D   B Y -                         
                 /     \                                                     
                 |  |  |   _    _      __       _____    __    __             
                 |  |  |  | |  | |    /  \     |  _  \  |  |  /  |          
                  \  \/   | |  | |   /    \    | | | |  |  | /  /          
                 / \  \   | |__| |  /  /\  \   | |_| |  |  |/  /          
                |  |  |   |  __  | /  /__\  \  |    /   |      \           
                |  |  |   | |  | | |   __   |  |    \   |  |\   \          
                \     /   | |  | | |  |  |  |  | |\  \  |  | \   \       
                 \___/    |_|  |_| |__|  |__|  |_| \__\ |__|  \__/        
                                                                              
                      - O R C A' S   B I G   F R I E N D -                    
                                      &                                       
                       - I N T E G R A L  F E E D E R -                       
                                                                              
 v1 FN, 2020, v2 2021                                                         
------------------------------------------------------------------------------


Reading SHARK input file HA.20.avtz.SHARKINP.tmp ... ok
----------------------
SHARK INTEGRAL PACKAGE
----------------------

Number of atoms                             ...     43
Number of basis functions                   ...   1783
Number of shells                            ...    695
Maximum angular momentum                    ...      3
Integral batch strategy                     ... SHARK/LIBINT Hybrid
RI-J (if used) integral strategy            ... SPLIT-RIJ (Revised 2003 algorithm where possible)
Printlevel                                  ...      1
Contraction scheme used                     ... PARTIAL GENERAL contraction
Coulomb Range Separation                    ... NOT USED
Exchange Range Separation                   ... NOT USED
Finite Nucleus Model                        ... NOT USED
Auxiliary Coulomb fitting basis             ... AVAILABLE
   # of basis functions in Aux-J            ...   1429
   # of shells in Aux-J                     ...    471
   Maximum angular momentum in Aux-J        ...      4
Auxiliary J/K fitting basis                 ... NOT available
Auxiliary Correlation fitting basis         ... AVAILABLE
   # of basis functions in Aux-C            ...   3601
   # of shells in Aux-C                     ...    979
   Maximum angular momentum in Aux-C        ...      4
Auxiliary 'external' fitting basis          ... NOT available
Integral threshold                          ...     2.500000e-11
Primitive cut-off                           ...     2.500000e-12
Primitive pair pre-selection threshold      ...     2.500000e-12

Calculating pre-screening integrals         ... done (  0.2 sec) Dimension = 695
Calculating pre-screening integrals (ORCA)  ... done (  0.5 sec) Dimension = 518
Organizing shell pair data                  ... done (  1.4 sec)
Shell pair information
Total number of shell pairs                 ...    241860
Shell pairs after pre-screening             ...    138602
Total number of primitive shell pairs       ...    300820
Primitive shell pairs kept                  ...    157238
          la=0 lb=0:  30696 shell pairs
          la=1 lb=0:  37140 shell pairs
          la=1 lb=1:  10432 shell pairs
          la=2 lb=0:  22992 shell pairs
          la=2 lb=1:  13034 shell pairs
          la=2 lb=2:   4170 shell pairs
          la=3 lb=0:   9994 shell pairs
          la=3 lb=1:   5729 shell pairs
          la=3 lb=2:   3601 shell pairs
          la=3 lb=3:    814 shell pairs

Calculating one electron integrals          ... done (  0.4 sec)
Calculating RI/J V-Matrix + Cholesky decomp.... done (  0.2 sec)
Calculating RI/C V-Matrix + Cholesky decomp.... done (  0.8 sec)
Calculating Nuclear repulsion               ... done (  0.0 sec) ENN=   2691.600349336842 Eh

SHARK setup successfully completed in   4.7 seconds

Maximum memory used throughout the entire GTOINT-calculation: 184.7 MB


           ************************************************************
           *        Program running with 8 parallel MPI-processes     *
           *              working on a common directory               *
           ************************************************************
-------------------------------------------------------------------------------
                                 ORCA SCF
-------------------------------------------------------------------------------

------------
SCF SETTINGS
------------
Hamiltonian:
 Density Functional     Method          .... DFT(GTOs)
 Exchange Functional    Exchange        .... PBE
   PBE kappa parameter   XKappa         ....  0.804000
   PBE mue parameter    XMuePBE         ....  0.219520
 Correlation Functional Correlation     .... P86
 LDA part of GGA corr.  LDAOpt          .... VWN-5
 Gradients option       PostSCFGGA      .... off
 Hybrid DFT is turned on
   Fraction HF Exchange ScalHFX         ....  0.700000
   Scaling of DF-GGA-X  ScalDFX         ....  0.300000
   Scaling of DF-GGA-C  ScalDFC         ....  0.430000
   Scaling of DF-LDA-C  ScalLDAC        ....  0.430000
   Perturbative correction              ....  1.000000
   Density functional embedding theory  .... OFF
   NL short-range parameter             .... 14.200000
 RI-approximation to the Coulomb term is turned on
   Number of AuxJ basis functions       .... 1429
   RIJ-COSX (HFX calculated with COS-X)).... on


General Settings:
 Integral files         IntName         .... HA.20.avtz
 Hartree-Fock type      HFTyp           .... RHF
 Total Charge           Charge          ....    0
 Multiplicity           Mult            ....    1
 Number of Electrons    NEL             ....  210
 Basis Dimension        Dim             .... 1576
 Nuclear Repulsion      ENuc            ....   2691.6003493368 Eh

Convergence Acceleration:
 DIIS                   CNVDIIS         .... on
   Start iteration      DIISMaxIt       ....    12
   Startup error        DIISStart       ....  0.200000
   # of expansion vecs  DIISMaxEq       ....     5
   Bias factor          DIISBfac        ....   1.050
   Max. coefficient     DIISMaxC        ....  10.000
 Trust-Rad. Augm. Hess. CNVTRAH         .... auto
   Auto Start mean grad. ratio tolernc. ....  1.125000
   Auto Start start iteration           ....    20
   Auto Start num. interpolation iter.  ....    10
   Max. Number of Micro iterations      ....    16
   Max. Number of Macro iterations      .... Maxiter - #DIIS iter
   Number of Davidson start vectors     ....     2
   Converg. threshold I  (grad. norm)   ....   1.000e-05
   Converg. threshold II (energy diff.) ....   1.000e-08
   Grad. Scal. Fac. for Micro threshold ....   0.100
   Minimum threshold for Micro iter.    ....   0.010
   NR start threshold (gradient norm)   ....   0.001
   Initial trust radius                 ....   0.400
   Minimum AH scaling param. (alpha)    ....   1.000
   Maximum AH scaling param. (alpha)    .... 1000.000
   Orbital update algorithm             .... Taylor
   White noise on init. David. guess    .... on
   Maximum white noise                  ....   0.010
   Quad. conv. algorithm                .... NR
 SOSCF                  CNVSOSCF        .... on
   Start iteration      SOSCFMaxIt      ....   150
   Startup grad/error   SOSCFStart      ....  0.003300
 Level Shifting         CNVShift        .... on
   Level shift para.    LevelShift      ....    0.2500
   Turn off err/grad.   ShiftErr        ....    0.0010
 Zerner damping         CNVZerner       .... off
 Static damping         CNVDamp         .... on
   Fraction old density DampFac         ....    0.7000
   Max. Damping (<1)    DampMax         ....    0.9800
   Min. Damping (>=0)   DampMin         ....    0.0000
   Turn off err/grad.   DampErr         ....    0.1000
 Fernandez-Rico         CNVRico         .... off

SCF Procedure:
 Maximum # iterations   MaxIter         ....   125
 SCF integral mode      SCFMode         .... Direct
   Integral package                     .... SHARK and LIBINT hybrid scheme
 Reset frequency        DirectResetFreq ....    20
 Integral Threshold     Thresh          ....  2.500e-11 Eh
 Primitive CutOff       TCut            ....  2.500e-12 Eh

Convergence Tolerance:
 Convergence Check Mode ConvCheckMode   .... Total+1el-Energy
 Convergence forced     ConvForced      .... 0
 Energy Change          TolE            ....  1.000e-08 Eh
 1-El. energy change                    ....  1.000e-05 Eh
 Orbital Gradient       TolG            ....  1.000e-05
 Orbital Rotation angle TolX            ....  1.000e-05
 DIIS Error             TolErr          ....  5.000e-07


Diagonalization of the overlap matrix:
Smallest eigenvalue                        ... 2.475e-07
Time for diagonalization                   ...    0.363 sec
Threshold for overlap eigenvalues          ... 1.000e-08
Number of eigenvalues below threshold      ... 0
Time for construction of square roots      ...    0.257 sec
Total time needed                          ...    0.631 sec

Time for model grid setup =    0.515 sec

------------------------------
INITIAL GUESS: MODEL POTENTIAL
------------------------------
Loading Hartree-Fock densities                     ... done
Calculating cut-offs                               ... done
Initializing the effective Hamiltonian             ... done
Setting up the integral package (SHARK)            ... done
Starting the Coulomb interaction                   ... done (   2.2 sec)
Reading the grid                                   ... done
Mapping shells                                     ... done
Starting the XC term evaluation                    ... done (   1.8 sec)
  promolecular density results
     # of electrons  =    210.002055617
     EX              =   -210.875639382
     EC              =     -0.092380820
     EX+EC           =   -210.968020202
Transforming the Hamiltonian                       ... done (   0.2 sec)
Diagonalizing the Hamiltonian                      ... done (   0.4 sec)
Back transforming the eigenvectors                 ... done (   0.1 sec)
Now organizing SCF variables                       ... done
                      ------------------
                      INITIAL GUESS DONE (   5.2 sec)
                      ------------------
-------------------
DFT GRID GENERATION
-------------------

General Integration Accuracy     IntAcc      ... 4.388
Radial Grid Type                 RadialGrid  ... OptM3 with GC (2021)
Angular Grid (max. ang.)         AngularGrid ... 4 (Lebedev-302)
Angular grid pruning method      GridPruning ... 4 (adaptive)
Weight generation scheme         WeightScheme... Becke
Basis function cutoff            BFCut       ... 1.0000e-11
Integration weight cutoff        WCut        ... 1.0000e-14
Angular grids for H and He will be reduced by one unit
Partially contracted basis set               ... off
Rotationally invariant grid construction     ... off

Total number of grid points                  ...   219994
Total number of batches                      ...     3459
Average number of points per batch           ...       63
Average number of grid points per atom       ...     5116
Time for grid setup =    2.084 sec

--------------------
COSX GRID GENERATION
--------------------

GRIDX 1
-------
General Integration Accuracy     IntAcc      ... 3.816
Radial Grid Type                 RadialGrid  ... OptM3 with GC (2021)
Angular Grid (max. ang.)         AngularGrid ... 1 (Lebedev-50)
Angular grid pruning method      GridPruning ... 4 (adaptive)
Weight generation scheme         WeightScheme... Becke
Basis function cutoff            BFCut       ... 1.0000e-11
Integration weight cutoff        WCut        ... 1.0000e-14
Angular grids for H and He will be reduced by one unit
Partially contracted basis set               ... on
Rotationally invariant grid construction     ... off

Total number of grid points                  ...    27252
Total number of batches                      ...      447
Average number of points per batch           ...       60
Average number of grid points per atom       ...      634
UseSFitting                                  ... on

GRIDX 2
-------
General Integration Accuracy     IntAcc      ... 4.020
Radial Grid Type                 RadialGrid  ... OptM3 with GC (2021)
Angular Grid (max. ang.)         AngularGrid ... 2 (Lebedev-110)
Angular grid pruning method      GridPruning ... 4 (adaptive)
Weight generation scheme         WeightScheme... Becke
Basis function cutoff            BFCut       ... 1.0000e-11
Integration weight cutoff        WCut        ... 1.0000e-14
Angular grids for H and He will be reduced by one unit
Partially contracted basis set               ... on
Rotationally invariant grid construction     ... off

Total number of grid points                  ...    65269
Total number of batches                      ...     1039
Average number of points per batch           ...       62
Average number of grid points per atom       ...     1518
UseSFitting                                  ... on

GRIDX 3
-------
General Integration Accuracy     IntAcc      ... 4.338
Radial Grid Type                 RadialGrid  ... OptM3 with GC (2021)
Angular Grid (max. ang.)         AngularGrid ... 3 (Lebedev-194)
Angular grid pruning method      GridPruning ... 4 (adaptive)
Weight generation scheme         WeightScheme... Becke
Basis function cutoff            BFCut       ... 1.0000e-11
Integration weight cutoff        WCut        ... 1.0000e-14
Angular grids for H and He will be reduced by one unit
Partially contracted basis set               ... on
Rotationally invariant grid construction     ... off

Total number of grid points                  ...   145435
Total number of batches                      ...     2297
Average number of points per batch           ...       63
Average number of grid points per atom       ...     3382
UseSFitting                                  ... on

Time for X-Grid setup             =    5.986 sec

 re-compute Schwartz prescreening matrix in partically contracted basis (1) ...done (   0.195 sec)
--------------
SCF ITERATIONS
--------------
ITER       Energy         Delta-E        Max-DP      RMS-DP      [F,P]     Damp
               ***  Starting incremental Fock matrix formation  ***
  0  -2257.0008309656   0.000000000000 0.77198818  0.00518424  0.2915111 0.7000
  1  -2257.3461546510  -0.345323685448 0.68238295  0.00414012  0.1471281 0.7000
                               ***Turning on DIIS***
  2  -2257.5137300994  -0.167575448401 1.82814740  0.00957341  0.0690469 0.0000
  3  -2257.8008126452  -0.287082545831 0.44548138  0.00176911  0.0656561 0.0000
  4  -2257.8421542512  -0.041341605970 0.11193583  0.00051369  0.0075525 0.0000
  5  -2257.8435152326  -0.001360981430 0.04956302  0.00025144  0.0062852 0.0000
                      *** Initiating the SOSCF procedure ***
                           *** Shutting down DIIS ***
                      *** Re-Reading the Fockian *** 
                      *** Removing any level shift *** 
ITER      Energy       Delta-E        Grad      Rot      Max-DP    RMS-DP
  6  -2257.84390728  -0.0003920427  0.001242  0.001242  0.044825  0.000242
               *** Restarting incremental Fock matrix formation ***
  7  -2257.84387474   0.0000325342  0.000890  0.002456  1.022895  0.004932
  8  -2257.84392379  -0.0000490492  0.000234  0.001215  0.283068  0.001267
  9  -2257.84392987  -0.0000060791  0.000244  0.000659  0.205011  0.000962
 10  -2257.84393369  -0.0000038163  0.000050  0.000107  0.072505  0.000401
 11  -2257.84393408  -0.0000003922  0.000024  0.000040  0.042677  0.000215
 12  -2257.84393415  -0.0000000703  0.000005  0.000023  0.033607  0.000231
 13  -2257.84393413   0.0000000207  0.000004  0.000016  0.102310  0.000521
 14  -2257.84393414  -0.0000000119  0.000005  0.000013  0.017219  0.000122
                  ***Gradient check signals convergence***
              ***Rediagonalizing the Fockian in SOSCF/NRSCF***

               *****************************************************
               *                     SUCCESS                       *
               *           SCF CONVERGED AFTER  15 CYCLES          *
               *****************************************************

Old exchange energy                            =   -149.851653477 Eh
New exchange energy                            =   -149.851063901 Eh
Exchange energy change after final integration =      0.000589577 Eh
Total energy after final integration           =  -2257.843344582 Eh
Final COS-X integration done in                =   127.743 sec

----------------
TOTAL SCF ENERGY
----------------

Total Energy       :        -2257.84334458 Eh          -61439.04091 eV

Components:
Nuclear Repulsion  :         2691.60034934 Eh           73242.16907 eV
Electronic Energy  :        -4949.44369392 Eh         -134681.20997 eV
One Electron Energy:        -8455.75557790 Eh         -230092.80697 eV
Two Electron Energy:         3506.31188398 Eh           95411.59699 eV
Max COSX asymmetry :            0.00003822 Eh               0.00104 eV

Virial components:
Potential Energy   :        -4509.96303017 Eh         -122722.33313 eV
Kinetic Energy     :         2252.11968559 Eh           61283.29223 eV
Virial Ratio       :            2.00254145


DFT components:
N(Alpha)           :      105.000086317812 electrons
N(Beta)            :      105.000086317812 electrons
N(Total)           :      210.000172635624 electrons
E(X)               :      -63.956253246707 Eh       
E(C)               :       -3.538264089262 Eh       
E(XC)              :      -67.494517335970 Eh       
DFET-embed. en.    :        0.000000000000 Eh       

---------------
SCF CONVERGENCE
---------------

  Last Energy change         ...   -1.9644e-08  Tolerance :   1.0000e-08
  Last MAX-Density change    ...    4.8850e-15  Tolerance :   1.0000e-07
  Last RMS-Density change    ...    2.6530e-17  Tolerance :   5.0000e-09
  Last Orbital Gradient      ...    1.3683e-06  Tolerance :   1.0000e-05
  Last Orbital Rotation      ...    2.2885e-05  Tolerance :   1.0000e-05

             **** THE GBW FILE WAS UPDATED (HA.20.avtz.gbw) ****
             **** DENSITY HA.20.avtz.scfp WAS UPDATED ****
             **** ENERGY FILE WAS UPDATED (HA.20.avtz.en.tmp) ****
             **** THE GBW FILE WAS UPDATED (HA.20.avtz.gbw) ****
             **** DENSITY HA.20.avtz.scfp WAS UPDATED ****
----------------
ORBITAL ENERGIES
----------------

  NO   OCC          E(Eh)            E(eV) 
   0   2.0000     -91.062031     -2477.9238 
   1   2.0000     -91.035121     -2477.1916 
   2   2.0000     -90.884369     -2473.0894 
   3   2.0000     -20.032452      -545.1107 
   4   2.0000     -20.032303      -545.1067 
   5   2.0000     -20.030824      -545.0664 
   6   2.0000     -20.023622      -544.8705 
   7   2.0000     -20.023360      -544.8633 
   8   2.0000     -15.151994      -412.3067 
   9   2.0000     -15.105927      -411.0532 
  10   2.0000     -10.919496      -297.1346 
  11   2.0000     -10.918813      -297.1160 
  12   2.0000     -10.899386      -296.5874 
  13   2.0000     -10.895894      -296.4923 
  14   2.0000     -10.885878      -296.2198 
  15   2.0000     -10.883004      -296.1416 
  16   2.0000     -10.882155      -296.1185 
  17   2.0000     -10.879367      -296.0426 
  18   2.0000     -10.874499      -295.9102 
  19   2.0000     -10.873279      -295.8770 
  20   2.0000     -10.872546      -295.8570 
  21   2.0000     -10.865306      -295.6600 
  22   2.0000     -10.862410      -295.5812 
  23   2.0000     -10.862401      -295.5809 
  24   2.0000     -10.858862      -295.4847 
  25   2.0000      -8.803985      -239.5686 
  26   2.0000      -8.781256      -238.9501 
  27   2.0000      -8.659694      -235.6423 
  28   2.0000      -6.590157      -179.3273 
  29   2.0000      -6.589231      -179.3021 
  30   2.0000      -6.587170      -179.2460 
  31   2.0000      -6.566577      -178.6856 
  32   2.0000      -6.565902      -178.6673 
  33   2.0000      -6.564573      -178.6311 
  34   2.0000      -6.442151      -175.2998 
  35   2.0000      -6.439518      -175.2282 
  36   2.0000      -6.439225      -175.2202 
  37   2.0000      -1.356726       -36.9184 
  38   2.0000      -1.333964       -36.2990 
  39   2.0000      -1.268252       -34.5109 
  40   2.0000      -1.241892       -33.7936 
  41   2.0000      -1.226620       -33.3780 
  42   2.0000      -1.145797       -31.1787 
  43   2.0000      -1.128752       -30.7149 
  44   2.0000      -1.121116       -30.5071 
  45   2.0000      -1.082723       -29.4624 
  46   2.0000      -0.990236       -26.9457 
  47   2.0000      -0.965817       -26.2812 
  48   2.0000      -0.953613       -25.9491 
  49   2.0000      -0.953066       -25.9342 
  50   2.0000      -0.950793       -25.8724 
  51   2.0000      -0.903790       -24.5934 
  52   2.0000      -0.852035       -23.1851 
  53   2.0000      -0.828583       -22.5469 
  54   2.0000      -0.811841       -22.0913 
  55   2.0000      -0.799576       -21.7576 
  56   2.0000      -0.783696       -21.3255 
  57   2.0000      -0.748007       -20.3543 
  58   2.0000      -0.735239       -20.0069 
  59   2.0000      -0.713880       -19.4257 
  60   2.0000      -0.711741       -19.3675 
  61   2.0000      -0.692214       -18.8361 
  62   2.0000      -0.674308       -18.3489 
  63   2.0000      -0.660735       -17.9795 
  64   2.0000      -0.642813       -17.4918 
  65   2.0000      -0.636986       -17.3333 
  66   2.0000      -0.619446       -16.8560 
  67   2.0000      -0.611629       -16.6433 
  68   2.0000      -0.605651       -16.4806 
  69   2.0000      -0.593437       -16.1483 
  70   2.0000      -0.592001       -16.1092 
  71   2.0000      -0.585528       -15.9330 
  72   2.0000      -0.584104       -15.8943 
  73   2.0000      -0.582323       -15.8458 
  74   2.0000      -0.574404       -15.6303 
  75   2.0000      -0.558695       -15.2029 
  76   2.0000      -0.552294       -15.0287 
  77   2.0000      -0.550252       -14.9731 
  78   2.0000      -0.550169       -14.9709 
  79   2.0000      -0.531995       -14.4763 
  80   2.0000      -0.529621       -14.4117 
  81   2.0000      -0.517694       -14.0872 
  82   2.0000      -0.497820       -13.5464 
  83   2.0000      -0.491349       -13.3703 
  84   2.0000      -0.481657       -13.1065 
  85   2.0000      -0.480276       -13.0690 
  86   2.0000      -0.470811       -12.8114 
  87   2.0000      -0.467799       -12.7295 
  88   2.0000      -0.460548       -12.5322 
  89   2.0000      -0.457169       -12.4402 
  90   2.0000      -0.451357       -12.2820 
  91   2.0000      -0.448766       -12.2115 
  92   2.0000      -0.446412       -12.1475 
  93   2.0000      -0.444031       -12.0827 
  94   2.0000      -0.435732       -11.8569 
  95   2.0000      -0.430398       -11.7117 
  96   2.0000      -0.424194       -11.5429 
  97   2.0000      -0.415499       -11.3063 
  98   2.0000      -0.400656       -10.9024 
  99   2.0000      -0.371394       -10.1061 
 100   2.0000      -0.369469       -10.0538 
 101   2.0000      -0.352559        -9.5936 
 102   2.0000      -0.341037        -9.2801 
 103   2.0000      -0.335054        -9.1173 
 104   2.0000      -0.328103        -8.9281 
 105   0.0000      -0.006976        -0.1898 
 106   0.0000       0.009463         0.2575 
 107   0.0000       0.011751         0.3198 
 108   0.0000       0.016438         0.4473 
 109   0.0000       0.018095         0.4924 
 110   0.0000       0.022209         0.6043 
 111   0.0000       0.025222         0.6863 
 112   0.0000       0.028109         0.7649 
 113   0.0000       0.034232         0.9315 
 114   0.0000       0.034685         0.9438 
 115   0.0000       0.038980         1.0607 
 116   0.0000       0.040617         1.1052 
 117   0.0000       0.044834         1.2200 
 118   0.0000       0.045021         1.2251 
 119   0.0000       0.046920         1.2768 
 120   0.0000       0.054455         1.4818 
 121   0.0000       0.056752         1.5443 
 122   0.0000       0.058890         1.6025 
 123   0.0000       0.063362         1.7242 
 124   0.0000       0.064345         1.7509 
 125   0.0000       0.066819         1.8182 
 126   0.0000       0.068334         1.8595 
 127   0.0000       0.070442         1.9168 
 128   0.0000       0.073425         1.9980 
 129   0.0000       0.075380         2.0512 
 130   0.0000       0.080864         2.2004 
 131   0.0000       0.081954         2.2301 
 132   0.0000       0.087310         2.3758 
 133   0.0000       0.088143         2.3985 
 134   0.0000       0.090220         2.4550 
 135   0.0000       0.092267         2.5107 
 136   0.0000       0.095284         2.5928 
 137   0.0000       0.096818         2.6346 
 138   0.0000       0.097191         2.6447 
 139   0.0000       0.099932         2.7193 
 140   0.0000       0.101869         2.7720 
 141   0.0000       0.103392         2.8134 
 142   0.0000       0.108496         2.9523 
 143   0.0000       0.108703         2.9580 
 144   0.0000       0.109824         2.9885 
 145   0.0000       0.111057         3.0220 
 146   0.0000       0.113948         3.1007 
 147   0.0000       0.115023         3.1299 
 148   0.0000       0.115874         3.1531 
 149   0.0000       0.117903         3.2083 
 150   0.0000       0.121859         3.3160 
 151   0.0000       0.124043         3.3754 
 152   0.0000       0.124984         3.4010 
 153   0.0000       0.126867         3.4522 
 154   0.0000       0.128528         3.4974 
 155   0.0000       0.133203         3.6246 
 156   0.0000       0.134579         3.6621 
 157   0.0000       0.135734         3.6935 
 158   0.0000       0.136688         3.7195 
 159   0.0000       0.138720         3.7748 
 160   0.0000       0.142839         3.8869 
 161   0.0000       0.144643         3.9359 
 162   0.0000       0.146191         3.9781 
 163   0.0000       0.146613         3.9895 
 164   0.0000       0.150050         4.0831 
 165   0.0000       0.152608         4.1527 
 166   0.0000       0.154577         4.2063 
 167   0.0000       0.156724         4.2647 
 168   0.0000       0.160510         4.3677 
 169   0.0000       0.163243         4.4421 
 170   0.0000       0.164524         4.4769 
 171   0.0000       0.165916         4.5148 
 172   0.0000       0.169136         4.6024 
 173   0.0000       0.171446         4.6653 
 174   0.0000       0.173884         4.7316 
 175   0.0000       0.176154         4.7934 
 176   0.0000       0.177910         4.8412 
 177   0.0000       0.181800         4.9470 
 178   0.0000       0.183304         4.9879 
 179   0.0000       0.184330         5.0159 
 180   0.0000       0.185528         5.0485 
 181   0.0000       0.190472         5.1830 
 182   0.0000       0.191063         5.1991 
 183   0.0000       0.194040         5.2801 
 184   0.0000       0.194832         5.3016 
 185   0.0000       0.200905         5.4669 
 186   0.0000       0.201901         5.4940 
 187   0.0000       0.206526         5.6198 
 188   0.0000       0.207358         5.6425 
 189   0.0000       0.208393         5.6707 
 190   0.0000       0.210648         5.7320 
 191   0.0000       0.211333         5.7507 
 192   0.0000       0.213562         5.8113 
 193   0.0000       0.215875         5.8743 
 194   0.0000       0.218480         5.9451 
 195   0.0000       0.219139         5.9631 
 196   0.0000       0.219747         5.9796 
 197   0.0000       0.221653         6.0315 
 198   0.0000       0.226407         6.1608 
 199   0.0000       0.226949         6.1756 
 200   0.0000       0.229127         6.2348 
 201   0.0000       0.230498         6.2722 
 202   0.0000       0.231977         6.3124 
 203   0.0000       0.233977         6.3668 
 204   0.0000       0.236039         6.4229 
 205   0.0000       0.239618         6.5203 
 206   0.0000       0.240565         6.5461 
 207   0.0000       0.241654         6.5757 
 208   0.0000       0.242913         6.6100 
 209   0.0000       0.244572         6.6552 
 210   0.0000       0.247911         6.7460 
 211   0.0000       0.249611         6.7922 
 212   0.0000       0.251717         6.8496 
 213   0.0000       0.253511         6.8984 
 214   0.0000       0.257582         7.0092 
 215   0.0000       0.258801         7.0423 
 216   0.0000       0.260268         7.0823 
 217   0.0000       0.262283         7.1371 
 218   0.0000       0.263223         7.1627 
 219   0.0000       0.266877         7.2621 
 220   0.0000       0.268973         7.3191 
 221   0.0000       0.269934         7.3453 
 222   0.0000       0.270270         7.3544 
 223   0.0000       0.272818         7.4237 
 224   0.0000       0.274477         7.4689 
 225   0.0000       0.276269         7.5177 
 226   0.0000       0.278826         7.5872 
 227   0.0000       0.280718         7.6387 
 228   0.0000       0.284072         7.7300 
 229   0.0000       0.285622         7.7722 
 230   0.0000       0.286226         7.7886 
 231   0.0000       0.290251         7.8981 
 232   0.0000       0.292295         7.9537 
 233   0.0000       0.292727         7.9655 
 234   0.0000       0.293784         7.9943 
 235   0.0000       0.296905         8.0792 
 236   0.0000       0.298971         8.1354 
 237   0.0000       0.301849         8.2137 
 238   0.0000       0.304422         8.2837 
 239   0.0000       0.306817         8.3489 
 240   0.0000       0.311633         8.4800 
 241   0.0000       0.312205         8.4955 
 242   0.0000       0.314007         8.5446 
 243   0.0000       0.315267         8.5788 
 244   0.0000       0.316174         8.6035 
 245   0.0000       0.319392         8.6911 
 246   0.0000       0.321432         8.7466 
 247   0.0000       0.324598         8.8328 
 248   0.0000       0.326232         8.8772 
 249   0.0000       0.332736         9.0542 
 250   0.0000       0.332937         9.0597 
 251   0.0000       0.333503         9.0751 
 252   0.0000       0.335282         9.1235 
 253   0.0000       0.338125         9.2008 
 254   0.0000       0.339864         9.2482 
 255   0.0000       0.342828         9.3288 
 256   0.0000       0.344559         9.3759 
 257   0.0000       0.346345         9.4245 
 258   0.0000       0.348680         9.4881 
 259   0.0000       0.351228         9.5574 
 260   0.0000       0.352662         9.5964 
 261   0.0000       0.354837         9.6556 
 262   0.0000       0.357991         9.7414 
 263   0.0000       0.360027         9.7968 
 264   0.0000       0.363787         9.8992 
 265   0.0000       0.364574         9.9206 
 266   0.0000       0.367816        10.0088 
 267   0.0000       0.368829        10.0363 
 268   0.0000       0.371809        10.1174 
 269   0.0000       0.372564        10.1380 
 270   0.0000       0.376051        10.2329 
 271   0.0000       0.379532        10.3276 
 272   0.0000       0.380498        10.3539 
 273   0.0000       0.381039        10.3686 
 274   0.0000       0.384029        10.4500 
 275   0.0000       0.389059        10.5868 
 276   0.0000       0.391237        10.6461 
 277   0.0000       0.392036        10.6678 
 278   0.0000       0.395177        10.7533 
 279   0.0000       0.401212        10.9175 
 280   0.0000       0.402105        10.9418 
 281   0.0000       0.403463        10.9788 
 282   0.0000       0.406255        11.0548 
 283   0.0000       0.408738        11.1223 
 284   0.0000       0.411917        11.2088 
 285   0.0000       0.412574        11.2267 
 286   0.0000       0.414813        11.2876 
 287   0.0000       0.416655        11.3378 
 288   0.0000       0.420207        11.4344 
 289   0.0000       0.421381        11.4664 
 290   0.0000       0.424136        11.5413 
 291   0.0000       0.425514        11.5788 
 292   0.0000       0.428070        11.6484 
 293   0.0000       0.431134        11.7318 
 294   0.0000       0.432191        11.7605 
 295   0.0000       0.433810        11.8046 
 296   0.0000       0.436162        11.8686 
 297   0.0000       0.439588        11.9618 
 298   0.0000       0.440472        11.9859 
 299   0.0000       0.442132        12.0310 
 300   0.0000       0.442667        12.0456 
 301   0.0000       0.444154        12.0860 
 302   0.0000       0.447706        12.1827 
 303   0.0000       0.450340        12.2544 
 304   0.0000       0.451324        12.2811 
 305   0.0000       0.452353        12.3092 
 306   0.0000       0.457287        12.4434 
 307   0.0000       0.459978        12.5167 
 308   0.0000       0.463657        12.6167 
 309   0.0000       0.464050        12.6274 
 310   0.0000       0.466023        12.6811 
 311   0.0000       0.470215        12.7952 
 312   0.0000       0.472473        12.8566 
 313   0.0000       0.473585        12.8869 
 314   0.0000       0.474428        12.9099 
 315   0.0000       0.475689        12.9442 
 316   0.0000       0.478364        13.0169 
 317   0.0000       0.479639        13.0516 
 318   0.0000       0.481736        13.1087 
 319   0.0000       0.483079        13.1452 
 320   0.0000       0.485486        13.2107 
 321   0.0000       0.486409        13.2359 
 322   0.0000       0.487299        13.2601 
 323   0.0000       0.491830        13.3834 
 324   0.0000       0.493506        13.4290 
 325   0.0000       0.495524        13.4839 
 326   0.0000       0.501156        13.6372 
 327   0.0000       0.502093        13.6626 
 328   0.0000       0.504720        13.7341 
 329   0.0000       0.506807        13.7909 
 330   0.0000       0.507432        13.8079 
 331   0.0000       0.509098        13.8533 
 332   0.0000       0.510993        13.9048 
 333   0.0000       0.514294        13.9946 
 334   0.0000       0.514971        14.0131 
 335   0.0000       0.517433        14.0801 
 336   0.0000       0.519480        14.1358 
 337   0.0000       0.520050        14.1513 
 338   0.0000       0.523615        14.2483 
 339   0.0000       0.526950        14.3390 
 340   0.0000       0.527370        14.3505 
 341   0.0000       0.529956        14.4208 
 342   0.0000       0.533117        14.5068 
 343   0.0000       0.534196        14.5362 
 344   0.0000       0.536317        14.5939 
 345   0.0000       0.538992        14.6667 
 346   0.0000       0.540530        14.7086 
 347   0.0000       0.544773        14.8240 
 348   0.0000       0.546184        14.8624 
 349   0.0000       0.548075        14.9139 
 350   0.0000       0.550237        14.9727 
 351   0.0000       0.551692        15.0123 
 352   0.0000       0.553616        15.0647 
 353   0.0000       0.556833        15.1522 
 354   0.0000       0.559466        15.2239 
 355   0.0000       0.561131        15.2692 
 356   0.0000       0.563172        15.3247 
 357   0.0000       0.564586        15.3632 
 358   0.0000       0.567365        15.4388 
 359   0.0000       0.570275        15.5180 
 360   0.0000       0.571639        15.5551 
 361   0.0000       0.574449        15.6316 
 362   0.0000       0.576336        15.6829 
 363   0.0000       0.579504        15.7691 
 364   0.0000       0.581517        15.8239 
 365   0.0000       0.584428        15.9031 
 366   0.0000       0.587828        15.9956 
 367   0.0000       0.588489        16.0136 
 368   0.0000       0.593952        16.1622 
 369   0.0000       0.595932        16.2161 
 370   0.0000       0.597167        16.2497 
 371   0.0000       0.599354        16.3093 
 372   0.0000       0.603425        16.4200 
 373   0.0000       0.605029        16.4637 
 374   0.0000       0.611738        16.6462 
 375   0.0000       0.612800        16.6751 
 376   0.0000       0.618540        16.8313 
 377   0.0000       0.618723        16.8363 
 378   0.0000       0.620864        16.8946 
 379   0.0000       0.623343        16.9620 
 380   0.0000       0.624674        16.9982 
 381   0.0000       0.626526        17.0486 
 382   0.0000       0.627626        17.0786 
 383   0.0000       0.629719        17.1355 
 384   0.0000       0.634798        17.2737 
 385   0.0000       0.638198        17.3663 
 386   0.0000       0.640938        17.4408 
 387   0.0000       0.643856        17.5202 
 388   0.0000       0.652515        17.7558 
 389   0.0000       0.653094        17.7716 
 390   0.0000       0.655244        17.8301 
 391   0.0000       0.656345        17.8601 
 392   0.0000       0.659050        17.9337 
 393   0.0000       0.660748        17.9799 
 394   0.0000       0.664103        18.0712 
 395   0.0000       0.668809        18.1992 
 396   0.0000       0.669903        18.2290 
 397   0.0000       0.674459        18.3530 
 398   0.0000       0.677660        18.4401 
 399   0.0000       0.680699        18.5228 
 400   0.0000       0.684315        18.6212 
 401   0.0000       0.686798        18.6887 
 402   0.0000       0.690432        18.7876 
 403   0.0000       0.692206        18.8359 
 404   0.0000       0.696311        18.9476 
 405   0.0000       0.697500        18.9800 
 406   0.0000       0.704135        19.1605 
 407   0.0000       0.704685        19.1754 
 408   0.0000       0.710950        19.3459 
 409   0.0000       0.712515        19.3885 
 410   0.0000       0.715777        19.4773 
 411   0.0000       0.717681        19.5291 
 412   0.0000       0.721680        19.6379 
 413   0.0000       0.724372        19.7112 
 414   0.0000       0.730926        19.8895 
 415   0.0000       0.733739        19.9660 
 416   0.0000       0.738168        20.0866 
 417   0.0000       0.740046        20.1377 
 418   0.0000       0.743468        20.2308 
 419   0.0000       0.747785        20.3483 
 420   0.0000       0.751176        20.4405 
 421   0.0000       0.753121        20.4935 
 422   0.0000       0.753490        20.5035 
 423   0.0000       0.758234        20.6326 
 424   0.0000       0.760283        20.6883 
 425   0.0000       0.768688        20.9171 
 426   0.0000       0.771350        20.9895 
 427   0.0000       0.773265        21.0416 
 428   0.0000       0.774493        21.0750 
 429   0.0000       0.777296        21.1513 
 430   0.0000       0.779672        21.2159 
 431   0.0000       0.783570        21.3220 
 432   0.0000       0.788678        21.4610 
 433   0.0000       0.789337        21.4789 
 434   0.0000       0.790365        21.5069 
 435   0.0000       0.792141        21.5553 
 436   0.0000       0.795122        21.6364 
 437   0.0000       0.798331        21.7237 
 438   0.0000       0.800569        21.7846 
 439   0.0000       0.801873        21.8201 
 440   0.0000       0.807117        21.9628 
 441   0.0000       0.808042        21.9879 
 442   0.0000       0.812509        22.1095 
 443   0.0000       0.813354        22.1325 
 444   0.0000       0.817779        22.2529 
 445   0.0000       0.822421        22.3792 
 446   0.0000       0.823335        22.4041 
 447   0.0000       0.826086        22.4789 
 448   0.0000       0.826745        22.4969 
 449   0.0000       0.831159        22.6170 
 450   0.0000       0.832087        22.6422 
 451   0.0000       0.835517        22.7356 
 452   0.0000       0.838095        22.8057 
 453   0.0000       0.842516        22.9260 
 454   0.0000       0.844448        22.9786 
 455   0.0000       0.848525        23.0895 
 456   0.0000       0.850859        23.1531 
 457   0.0000       0.854057        23.2401 
 458   0.0000       0.855516        23.2798 
 459   0.0000       0.855862        23.2892 
 460   0.0000       0.859727        23.3944 
 461   0.0000       0.862696        23.4751 
 462   0.0000       0.864156        23.5149 
 463   0.0000       0.868141        23.6233 
 464   0.0000       0.872775        23.7494 
 465   0.0000       0.873757        23.7761 
 466   0.0000       0.875802        23.8318 
 467   0.0000       0.877699        23.8834 
 468   0.0000       0.880177        23.9508 
 469   0.0000       0.882056        24.0020 
 470   0.0000       0.885377        24.0923 
 471   0.0000       0.888934        24.1891 
 472   0.0000       0.890076        24.2202 
 473   0.0000       0.896978        24.4080 
 474   0.0000       0.898269        24.4432 
 475   0.0000       0.899634        24.4803 
 476   0.0000       0.902635        24.5619 
 477   0.0000       0.905478        24.6393 
 478   0.0000       0.910014        24.7627 
 479   0.0000       0.911258        24.7966 
 480   0.0000       0.915003        24.8985 
 481   0.0000       0.917005        24.9530 
 482   0.0000       0.918752        25.0005 
 483   0.0000       0.923474        25.1290 
 484   0.0000       0.925720        25.1901 
 485   0.0000       0.928911        25.2770 
 486   0.0000       0.929729        25.2992 
 487   0.0000       0.933428        25.3999 
 488   0.0000       0.934735        25.4354 
 489   0.0000       0.938675        25.5427 
 490   0.0000       0.939643        25.5690 
 491   0.0000       0.941927        25.6311 
 492   0.0000       0.944020        25.6881 
 493   0.0000       0.948172        25.8011 
 494   0.0000       0.950005        25.8510 
 495   0.0000       0.953023        25.9331 
 496   0.0000       0.956208        26.0198 
 497   0.0000       0.957842        26.0642 
 498   0.0000       0.961838        26.1730 
 499   0.0000       0.963888        26.2287 
 500   0.0000       0.965279        26.2666 
 501   0.0000       0.969280        26.3755 
 502   0.0000       0.973593        26.4928 
 503   0.0000       0.975651        26.5488 
 504   0.0000       0.977232        26.5918 
 505   0.0000       0.979212        26.6457 
 506   0.0000       0.981537        26.7090 
 507   0.0000       0.983453        26.7611 
 508   0.0000       0.987200        26.8631 
 509   0.0000       0.989482        26.9252 
 510   0.0000       0.989849        26.9352 
 511   0.0000       0.992056        26.9952 
 512   0.0000       0.995130        27.0789 
 513   0.0000       0.998032        27.1578 
 514   0.0000       1.001650        27.2563 
 515   0.0000       1.004962        27.3464 
 516   0.0000       1.006679        27.3931 
 517   0.0000       1.008531        27.4435 
 518   0.0000       1.012068        27.5398 
 519   0.0000       1.014820        27.6147 
 520   0.0000       1.016689        27.6655 
 521   0.0000       1.019070        27.7303 
 522   0.0000       1.020606        27.7721 
 523   0.0000       1.022297        27.8181 
 524   0.0000       1.025236        27.8981 
 525   0.0000       1.028157        27.9776 
 526   0.0000       1.031015        28.0554 
 527   0.0000       1.035329        28.1727 
 528   0.0000       1.035898        28.1882 
 529   0.0000       1.040766        28.3207 
 530   0.0000       1.041635        28.3443 
 531   0.0000       1.042366        28.3642 
 532   0.0000       1.043624        28.3985 
 533   0.0000       1.048302        28.5258 
 534   0.0000       1.051670        28.6174 
 535   0.0000       1.052605        28.6428 
 536   0.0000       1.054226        28.6870 
 537   0.0000       1.057267        28.7697 
 538   0.0000       1.060250        28.8509 
 539   0.0000       1.062566        28.9139 
 540   0.0000       1.065056        28.9816 
 541   0.0000       1.068287        29.0696 
 542   0.0000       1.071151        29.1475 
 543   0.0000       1.072983        29.1974 
 544   0.0000       1.075592        29.2683 
 545   0.0000       1.076976        29.3060 
 546   0.0000       1.078398        29.3447 
 547   0.0000       1.083908        29.4946 
 548   0.0000       1.089364        29.6431 
 549   0.0000       1.090124        29.6638 
 550   0.0000       1.090740        29.6806 
 551   0.0000       1.094467        29.7820 
 552   0.0000       1.095588        29.8125 
 553   0.0000       1.098100        29.8808 
 554   0.0000       1.100664        29.9506 
 555   0.0000       1.102934        30.0124 
 556   0.0000       1.105937        30.0941 
 557   0.0000       1.111513        30.2458 
 558   0.0000       1.114187        30.3186 
 559   0.0000       1.117199        30.4005 
 560   0.0000       1.118351        30.4319 
 561   0.0000       1.120841        30.4996 
 562   0.0000       1.123267        30.5656 
 563   0.0000       1.126082        30.6422 
 564   0.0000       1.128413        30.7057 
 565   0.0000       1.130646        30.7664 
 566   0.0000       1.131453        30.7884 
 567   0.0000       1.135877        30.9088 
 568   0.0000       1.137453        30.9517 
 569   0.0000       1.137872        30.9631 
 570   0.0000       1.139108        30.9967 
 571   0.0000       1.145493        31.1705 
 572   0.0000       1.150299        31.3012 
 573   0.0000       1.152803        31.3694 
 574   0.0000       1.154056        31.4034 
 575   0.0000       1.156435        31.4682 
 576   0.0000       1.159648        31.5556 
 577   0.0000       1.162815        31.6418 
 578   0.0000       1.164674        31.6924 
 579   0.0000       1.169906        31.8348 
 580   0.0000       1.172317        31.9004 
 581   0.0000       1.175815        31.9956 
 582   0.0000       1.178387        32.0655 
 583   0.0000       1.179700        32.1013 
 584   0.0000       1.183068        32.1929 
 585   0.0000       1.184224        32.2244 
 586   0.0000       1.186834        32.2954 
 587   0.0000       1.188674        32.3455 
 588   0.0000       1.191183        32.4137 
 589   0.0000       1.193849        32.4863 
 590   0.0000       1.198737        32.6193 
 591   0.0000       1.200373        32.6638 
 592   0.0000       1.203629        32.7524 
 593   0.0000       1.206496        32.8304 
 594   0.0000       1.210567        32.9412 
 595   0.0000       1.212551        32.9952 
 596   0.0000       1.214818        33.0569 
 597   0.0000       1.216391        33.0997 
 598   0.0000       1.222137        33.2560 
 599   0.0000       1.224607        33.3232 
 600   0.0000       1.226270        33.3685 
 601   0.0000       1.231105        33.5001 
 602   0.0000       1.234969        33.6052 
 603   0.0000       1.236574        33.6489 
 604   0.0000       1.241090        33.7718 
 605   0.0000       1.243211        33.8295 
 606   0.0000       1.244266        33.8582 
 607   0.0000       1.247337        33.9418 
 608   0.0000       1.249734        34.0070 
 609   0.0000       1.251529        34.0558 
 610   0.0000       1.256114        34.1806 
 611   0.0000       1.259263        34.2663 
 612   0.0000       1.262155        34.3450 
 613   0.0000       1.264318        34.4038 
 614   0.0000       1.265655        34.4402 
 615   0.0000       1.269828        34.5538 
 616   0.0000       1.271754        34.6062 
 617   0.0000       1.275173        34.6992 
 618   0.0000       1.280411        34.8418 
 619   0.0000       1.283784        34.9335 
 620   0.0000       1.286734        35.0138 
 621   0.0000       1.291907        35.1546 
 622   0.0000       1.293179        35.1892 
[...]
      f-2     :     0.050847
      f+3     :     0.063682
      f-3     :     0.060208
 32 C s       :     2.433402  s :     2.433402
      pz      :     0.736632  p :     2.162579
      px      :     0.694461
      py      :     0.731486
      dz2     :     0.185086  d :     0.894941
      dxz     :     0.253913
      dyz     :     0.102413
      dx2y2   :     0.205025
      dxy     :     0.148504
      f0      :     0.070141  f :     0.471324
      f+1     :     0.077585
      f-1     :     0.054601
      f+2     :     0.060875
      f-2     :     0.070195
      f+3     :     0.077991
      f-3     :     0.059936
 33 C s       :     2.432494  s :     2.432494
      pz      :     0.750735  p :     2.161564
      px      :     0.777920
      py      :     0.632909
      dz2     :     0.156610  d :     0.892758
      dxz     :     0.175582
      dyz     :     0.191539
      dx2y2   :     0.154349
      dxy     :     0.214678
      f0      :     0.083807  f :     0.471445
      f+1     :     0.042289
      f-1     :     0.059747
      f+2     :     0.080221
      f-2     :     0.046004
      f+3     :     0.088064
      f-3     :     0.071313
 34 O s       :     2.990799  s :     2.990799
      pz      :     1.415005  p :     3.870734
      px      :     1.308158
      py      :     1.147570
      dz2     :     0.045858  d :     0.431038
      dxz     :     0.055727
      dyz     :     0.080584
      dx2y2   :     0.127244
      dxy     :     0.121625
      f0      :     0.012032  f :     0.121006
      f+1     :     0.010453
      f-1     :     0.009635
      f+2     :     0.014400
      f-2     :     0.016367
      f+3     :     0.032081
      f-3     :     0.026038
 35 H s       :     0.617293  s :     0.617293
      pz      :     0.103736  p :     0.282111
      px      :     0.103910
      py      :     0.074466
      dz2     :     0.062974  d :     0.221450
      dxz     :     0.046682
      dyz     :     0.031819
      dx2y2   :     0.030956
      dxy     :     0.049019
 36 H s       :     0.613236  s :     0.613236
      pz      :     0.078745  p :     0.295168
      px      :     0.091602
      py      :     0.124821
      dz2     :     0.019029  d :     0.233139
      dxz     :     0.029350
      dyz     :     0.065543
      dx2y2   :     0.050649
      dxy     :     0.068568
 37 H s       :     0.622723  s :     0.622723
      pz      :     0.081887  p :     0.285262
      px      :     0.119031
      py      :     0.084344
      dz2     :     0.030347  d :     0.229217
      dxz     :     0.059578
      dyz     :     0.025526
      dx2y2   :     0.072896
      dxy     :     0.040870
 38 H s       :     0.620333  s :     0.620333
      pz      :     0.101635  p :     0.282719
      px      :     0.112795
      py      :     0.068289
      dz2     :     0.066210  d :     0.219469
      dxz     :     0.042668
      dyz     :     0.030548
      dx2y2   :     0.036044
      dxy     :     0.043999
 39 H s       :     0.636043  s :     0.636043
      pz      :     0.100370  p :     0.285927
      px      :     0.107104
      py      :     0.078454
      dz2     :     0.063860  d :     0.222747
      dxz     :     0.044685
      dyz     :     0.030046
      dx2y2   :     0.032350
      dxy     :     0.051806
 40 H s       :     0.647234  s :     0.647234
      pz      :     0.076677  p :     0.279815
      px      :     0.079396
      py      :     0.123742
      dz2     :     0.018828  d :     0.223821
      dxz     :     0.026880
      dyz     :     0.064287
      dx2y2   :     0.047000
      dxy     :     0.066826
 41 H s       :     0.646331  s :     0.646331
      pz      :     0.080019  p :     0.279402
      px      :     0.120139
      py      :     0.079245
      dz2     :     0.032325  d :     0.223859
      dxz     :     0.059375
      dyz     :     0.021751
      dx2y2   :     0.070984
      dxy     :     0.039424
 42 H s       :     0.635427  s :     0.635427
      pz      :     0.099971  p :     0.285516
      px      :     0.120952
      py      :     0.064592
      dz2     :     0.067018  d :     0.222572
      dxz     :     0.042544
      dyz     :     0.029998
      dx2y2   :     0.040132
      dxy     :     0.042879


                      *****************************
                      * MAYER POPULATION ANALYSIS *
                      *****************************

  NA   - Mulliken gross atomic population
  ZA   - Total nuclear charge
  QA   - Mulliken gross atomic charge
  VA   - Mayer's total valence
  BVA  - Mayer's bonded valence
  FA   - Mayer's free valence

  ATOM       NA         ZA         QA         VA         BVA        FA
  0 C      5.3246     6.0000     0.6754     2.7979     2.7979    -0.0000
  1 S     13.8778    16.0000     2.1222     4.4436     4.4436     0.0000
  2 O      8.9374     8.0000    -0.9374     1.5043     1.5043     0.0000
  3 O      8.9330     8.0000    -0.9330     1.4956     1.4956    -0.0000
  4 N      7.5739     7.0000    -0.5739     3.0044     3.0044     0.0000
  5 H      0.8541     1.0000     0.1459     1.0727     1.0727     0.0000
  6 H      0.8501     1.0000     0.1499     1.0682     1.0682    -0.0000
  7 S     16.3010    16.0000    -0.3010     2.0885     2.0885    -0.0000
  8 C      6.6660     6.0000    -0.6660     3.1267     3.1267    -0.0000
  9 C      5.6791     6.0000     0.3209     3.5521     3.5521    -0.0000
 10 C      7.0339     6.0000    -1.0339     3.4097     3.4097     0.0000
 11 S     13.8192    16.0000     2.1808     3.1381     3.1381     0.0000
 12 C      5.2080     6.0000     0.7920     3.2226     3.2226     0.0000
 13 O      9.1212     8.0000    -1.1212     1.0775     1.0775     0.0000
 14 O      9.0919     8.0000    -1.0919     1.0584     1.0584    -0.0000
 15 C      6.7015     6.0000    -0.7015     2.9473     2.9473    -0.0000
 16 C      7.1785     6.0000    -1.1785     2.7531     2.7531     0.0000
 17 C      3.9636     6.0000     2.0364    -0.0948    -0.0948    -0.0000
 18 C      6.7526     6.0000    -0.7526     3.0836     3.0836     0.0000
 19 C      6.8165     6.0000    -0.8165     2.4284     2.4284    -0.0000
 20 H      0.5149     1.0000     0.4851     0.7092     0.7092    -0.0000
 21 H      0.6354     1.0000     0.3646     0.9608     0.9608     0.0000
 22 H      0.5677     1.0000     0.4323     0.7418     0.7418    -0.0000
 23 H      0.9642     1.0000     0.0358     1.2720     1.2720     0.0000
 24 H      0.6103     1.0000     0.3897     0.7813     0.7813    -0.0000
 25 C      6.5697     6.0000    -0.5697     3.8637     3.8637    -0.0000
 26 N      6.7842     7.0000     0.2158     2.2556     2.2556    -0.0000
 27 H      0.9710     1.0000     0.0290     1.3295     1.3295     0.0000
 28 H      0.5661     1.0000     0.4339     0.6557     0.6557    -0.0000
 29 H      0.7490     1.0000     0.2510     0.9747     0.9747     0.0000
 30 C      6.6807     6.0000    -0.6807     3.9320     3.9320     0.0000
 31 C      6.7078     6.0000    -0.7078     3.9149     3.9149    -0.0000
 32 C      6.3647     6.0000    -0.3647     3.7430     3.7430     0.0000
 33 C      6.3367     6.0000    -0.3367     3.7886     3.7886    -0.0000
 34 O      8.7388     8.0000    -0.7388     1.8308     1.8308    -0.0000
 35 H      0.7826     1.0000     0.2174     1.0389     1.0389     0.0000
 36 H      0.5772     1.0000     0.4228     0.7854     0.7854    -0.0000
 37 H      0.6433     1.0000     0.3567     0.9205     0.9205    -0.0000
 38 H      0.7763     1.0000     0.2237     1.0534     1.0534    -0.0000
 39 H      0.7453     1.0000     0.2547     1.0197     1.0197    -0.0000
 40 H      0.6481     1.0000     0.3519     0.9299     0.9299     0.0000
 41 H      0.6223     1.0000     0.3777     0.8761     0.8761    -0.0000
 42 H      0.7599     1.0000     0.2401     1.0641     1.0641     0.0000

  Mayer bond orders larger than 0.100000
B(  0-C ,  1-S ) :   0.8991 B(  0-C ,  2-O ) :   0.1507 B(  0-C ,  7-S ) :   0.6082 
B(  0-C , 10-C ) :   1.2525 B(  1-S ,  2-O ) :   1.2415 B(  1-S ,  3-O ) :   1.2783 
B(  1-S ,  4-N ) :   0.9514 B(  4-N ,  5-H ) :   0.9520 B(  4-N ,  6-H ) :   0.9566 
B(  7-S ,  8-C ) :   1.2030 B(  7-S , 10-C ) :   0.2510 B(  8-C ,  9-C ) :   1.1367 
B(  8-C , 10-C ) :   0.1403 B(  8-C , 11-S ) :  -0.1058 B(  8-C , 12-C ) :   0.1804 
B(  8-C , 20-H ) :   0.6873 B(  9-C , 10-C ) :   0.7290 B(  9-C , 11-S ) :   1.1047 
B(  9-C , 12-C ) :   0.2787 B(  9-C , 13-O ) :   0.1796 B(  9-C , 14-O ) :   0.1586 
B( 10-C , 21-H ) :   0.9257 B( 11-S , 12-C ) :   1.0536 B( 11-S , 13-O ) :   0.6970 
B( 11-S , 14-O ) :   0.7193 B( 11-S , 19-C ) :  -0.2123 B( 12-C , 13-O ) :   0.3075 
B( 12-C , 14-O ) :   0.3705 B( 12-C , 15-C ) :   0.7789 B( 12-C , 16-C ) :  -0.2286 
B( 12-C , 18-C ) :  -0.2116 B( 12-C , 19-C ) :   0.5542 B( 12-C , 24-H ) :   0.1065 
B( 13-O , 16-C ) :  -0.1440 B( 14-O , 18-C ) :  -0.1701 B( 15-C , 16-C ) :   1.4123 
B( 15-C , 17-C ) :   0.1859 B( 15-C , 22-H ) :   0.7518 B( 16-C , 18-C ) :  -0.5173 
B( 16-C , 19-C ) :   0.2113 B( 16-C , 23-H ) :   1.6837 B( 16-C , 25-C ) :   0.3684 
B( 16-C , 26-N ) :  -0.1117 B( 16-C , 27-H ) :   0.1728 B( 17-C , 18-C ) :   0.7264 
B( 17-C , 19-C ) :   0.2811 B( 17-C , 22-H ) :   0.1160 B( 17-C , 23-H ) :  -0.4131 
B( 17-C , 25-C ) :   0.1058 B( 17-C , 26-N ) :  -0.2008 B( 17-C , 27-H ) :  -0.3977 
B( 17-C , 28-H ) :  -0.1382 B( 18-C , 19-C ) :   1.3093 B( 18-C , 23-H ) :   0.1173 
B( 18-C , 25-C ) :   0.2035 B( 18-C , 27-H ) :   1.7390 B( 19-C , 23-H ) :  -0.1053 
B( 19-C , 24-H ) :   0.7376 B( 19-C , 27-H ) :  -0.1603 B( 23-H , 27-H ) :   0.1882 
B( 25-C , 26-N ) :   1.2534 B( 25-C , 28-H ) :   0.8570 B( 25-C , 29-H ) :   1.1302 
B( 26-N , 30-C ) :   0.9344 B( 26-N , 31-C ) :   0.8711 B( 26-N , 32-C ) :  -0.1174 
B( 30-C , 31-C ) :   0.1120 B( 30-C , 33-C ) :   1.0643 B( 30-C , 35-H ) :   0.9931 
B( 30-C , 36-H ) :   0.7678 B( 31-C , 32-C ) :   1.0221 B( 31-C , 37-H ) :   0.8687 
B( 31-C , 38-H ) :   0.9801 B( 32-C , 34-O ) :   0.8734 B( 32-C , 39-H ) :   0.9974 
B( 32-C , 40-H ) :   0.9447 B( 33-C , 34-O ) :   0.8331 B( 33-C , 41-H ) :   0.8831 
B( 33-C , 42-H ) :   1.0281 

-------
TIMINGS
-------

Total SCF time: 0 days 0 hours 16 min 22 sec 

Total time                  ....     982.526 sec
Sum of individual times     ....     975.534 sec  ( 99.3%)

Fock matrix formation       ....     949.789 sec  ( 96.7%)
  Split-RI-J                ....      55.220 sec  (  5.8% of F)
  Chain of spheres X        ....     810.876 sec  ( 85.4% of F)
  XC integration            ....      80.630 sec  (  8.5% of F)
    Basis function eval.    ....       9.979 sec  ( 12.4% of XC)
    Density eval.           ....      32.694 sec  ( 40.5% of XC)
    XC-Functional eval.     ....       0.442 sec  (  0.5% of XC)
    XC-Potential eval.      ....      23.407 sec  ( 29.0% of XC)
Diagonalization             ....       3.805 sec  (  0.4%)
Density matrix formation    ....       0.605 sec  (  0.1%)
Population analysis         ....       0.714 sec  (  0.1%)
Initial guess               ....       4.719 sec  (  0.5%)
Orbital Transformation      ....       0.000 sec  (  0.0%)
Orbital Orthonormalization  ....       0.000 sec  (  0.0%)
DIIS solution               ....       2.761 sec  (  0.3%)
SOSCF solution              ....       4.557 sec  (  0.5%)
Grid generation             ....       8.585 sec  (  0.9%)

Maximum memory used throughout the entire SCF-calculation: 519.6 MB


           ************************************************************
           *        Program running with 8 parallel MPI-processes     *
           *              working on a common directory               *
           ************************************************************

------------------------------------------------------------------------------
                                ORCA  MP2 
------------------------------------------------------------------------------

Freezing NCore=74 chemical core electrons

   <<< Use J-auxbasis for calculation of Separable RI-J derivative contributions (Dim=1429) >>> 


-------------
RI-MP2 ENERGY
-------------
Dimension of the basis                    ... 1576
Memory devoted to MP2                     ... 5000 MB   
Data format for buffers                   ... DOUBLE
Compression type for matrix containers    ... UNCOMPRESSED
Scaling for aa/bb pairs                   ...   2.500e-01
Scaling for ab pairs                      ...   5.300e-01
Overall scaling of the MP2 energy         ...   1.000e+00
Calculating two index integrals           ... done (    0.153 sec)
Cholesky decomposition of V**-1           ... done (    1.363 sec)

-----------------
RI-TRANSFORMATION (AUX index driven)
-----------------

Dimension of the orbital-basis         ... 1576
Dimension of the aux-basis             ... 3601
Transformation of internal/external MOs...   37- 104 to  105-1575
Number Format for Storage              ... Double (8 Byte)
Integral mode                          ... Direct

First Phase: integral generation and transformation of MO indices
  Aux angular momentum 0               ... done (    2.369 sec)
  Aux angular momentum 1               ... done (    4.503 sec)
  Aux angular momentum 2               ... done (    6.255 sec)
  Aux angular momentum 3               ... done (    5.769 sec)
  Aux angular momentum 4               ... done (    2.921 sec)
Closing buffer VIA ( 2.68 GB; CompressionRatio= 1.00)
  Phase 1 completed in    23.132 sec
Second Phase: sorting and transformation of aux index

IA-Transformation
Memory available                       ... 4802 MB 
Max. # MO pairs treated in a batch     ... 9    
# of internal orbitals                 ... 68
# batches for internal orbitals        ... 1
Closing buffer IAV ( 2.68 GB; CompressionRatio= 1.00)
(ia|v) transformation done in     6.223 sec

  Phase 2 completed in     6.721 sec
RI-Integral transformation completed in    29.857 sec
Opening buffers                              ... done

Starting loop over batches of integrals:

Operator 0  - window                       ... ( 37-104)x(105-1575)
Operator 0  - Memory available             ...  5000 MB
Operator 0  - Memory needed per MO         ...  40.4 MB
Operator 0  - Number of orbitals per batch ... 9
Operator 0  - Number of batches            ... 1

OPERATOR  0   PASS   0:  MOs    37 ...   45 +   46 ...   54 +   55 ...   63 +   64 ...   72
                            +   73 ...   81 +   82 ...   90 +   91 ...   99 +  100 ...  104
  Reading integrals       ... ok
  Internal MO  39
  Internal MO  42
  Internal MO  45
Time spent in pair loops =    11.055 sec
Deleting buffer (Ka|jb)[aa] ...done

-----------------------------------------------
 RI-MP2 CORRELATION ENERGY:     -2.403162763 Eh
-----------------------------------------------


-------
TIMINGS
-------

Total time                :  165.949 sec
Integral trafo            :   29.876 sec ( 18.0%)
I/O of integrals          :    0.193 sec (  0.1%)
K(i,j) Operators          :    9.514 sec (  5.7%)
T(i,j) pair energies      :    0.862 sec (  0.5%)
V-calculation             :    0.153 sec (  0.1%)
V**(-1/2)                 :    1.363 sec (  0.8%)
Gamma(ia|P)               :    0.000 sec (  0.0%)
Gamma-Trafo               :    0.000 sec (  0.0%)
D(virtual)                :    0.000 sec (  0.0%)
D(internal)               :    0.000 sec (  0.0%)
W(virtual)                :    0.000 sec (  0.0%)
W(internal)               :    0.000 sec (  0.0%)
L(virtual)                :    0.000 sec (  0.0%)
L(internal)               :    0.000 sec (  0.0%)
G(D)                      :    0.000 sec (  0.0%)
G(Z)                      :    0.000 sec (  0.0%)
Z-Vector Solution         :    0.000 sec (  0.0%)
3-Index Derivative        :    0.000 sec (  0.0%)
2-Index Derivative        :    0.000 sec (  0.0%)
Separable Gradient (RIJ)  :    0.000 sec (  0.0%)
Separable Gradient (COSX) :    0.000 sec (  0.0%)


---------------------------------------
MP2 TOTAL ENERGY:    -2260.246507346 Eh
---------------------------------------

Maximum memory used throughout the entire MP2-calculation: 683.4 MB


-------------------------------------------------------------------------------
                          DFT DISPERSION CORRECTION                            
                                                                               
                              DFTD3 V3.1  Rev 1                                
                          USING Becke-Johnson damping                          
-------------------------------------------------------------------------------
The DSD-PBEP86 functional is recognized
Active option DFTDOPT                   ...         4   

molecular C6(AA) [au] = 25931.738093 


            DFT-D V3
 parameters
 s6 scaling factor         :     0.4180 
 a1 scaling factor         :     0.0000 
 s8 scaling factor         :     0.0000 
 a2 scaling factor         :     5.6500 
 ad hoc parameters k1-k3   :    16.0000     1.3333    -4.0000 

 Edisp/kcal,au: -22.786299052655  -0.036312275055 
 E6   /kcal   : -22.786299053 
 E8   /kcal   :  -0.000000000 
 % E8         :   0.000000000 

-------------------------   ----------------
Dispersion correction           -0.036312275
-------------------------   ----------------


-------------------------   --------------------
FINAL SINGLE POINT ENERGY     -2260.282819621022
-------------------------   --------------------


                            ***************************************
                            *     ORCA property calculations      *
                            ***************************************


  WARNING: The energy has been calculated at the MP2 level but the densities
           used in the property calculations are still SCF densities
           MP2 response densities have not been calculated 
           use %mp2 Density relaxed end
           or  %mp2 Density unrelaxed end

                                    ---------------------
                                    Active property flags
                                    ---------------------
   (+) Dipole Moment


------------------------------------------------------------------------------
                       ORCA ELECTRIC PROPERTIES CALCULATION
------------------------------------------------------------------------------

Dipole Moment Calculation                       ... on
Quadrupole Moment Calculation                   ... off
Polarizability Calculation                      ... off
GBWName                                         ... HA.20.avtz.gbw
Electron density                                ... HA.20.avtz.scfp
The origin for moment calculation is the CENTER OF MASS  = ( 2.256904, -2.328891 -5.921561)

-------------
DIPOLE MOMENT
-------------
                                X             Y             Z
Electronic contribution:    -33.90769      27.67042      12.50637
Nuclear contribution   :     33.82760     -28.15462     -13.04135
                        -----------------------------------------
Total Dipole Moment    :     -0.08009      -0.48421      -0.53497
                        -----------------------------------------
Magnitude (a.u.)       :      0.72599
Magnitude (Debye)      :      1.84533



--------------------
Rotational spectrum 
--------------------
 
Rotational constants in cm-1:     0.012352     0.002186     0.002047 
Rotational constants in MHz :   370.292255    65.535358    61.355848 

 Dipole components along the rotational axes: 
x,y,z [a.u.] :    -0.412799     0.055933    -0.594588 
x,y,z [Debye]:    -1.049252     0.142170    -1.511323 

 

Timings for individual modules:

Sum of individual times         ...     1158.763 sec (=  19.313 min)
GTO integral calculation        ...        6.473 sec (=   0.108 min)   0.6 %
SCF iterations                  ...      984.310 sec (=  16.405 min)  84.9 %
MP2 module                      ...      167.980 sec (=   2.800 min)  14.5 %
                             ****ORCA TERMINATED NORMALLY****
TOTAL RUN TIME: 0 days 0 hours 19 minutes 22 seconds 450 msec
