
                                 *****************
                                 * O   R   C   A *
                                 *****************

                                            #,                                       
                                            ###                                      
                                            ####                                     
                                            #####                                    
                                            ######                                   
                                           ########,                                 
                                     ,,################,,,,,                         
                               ,,#################################,,                 
                          ,,##########################################,,             
                       ,#########################################, ''#####,          
                    ,#############################################,,   '####,        
                  ,##################################################,,,,####,       
                ,###########''''           ''''###############################       
              ,#####''   ,,,,##########,,,,          '''####'''          '####       
            ,##' ,,,,###########################,,,                        '##       
           ' ,,###''''                  '''############,,,                           
         ,,##''                                '''############,,,,        ,,,,,,###''
      ,#''                                            '''#######################'''  
     '                                                          ''''####''''         
             ,#######,   #######,   ,#######,      ##                                
            ,#'     '#,  ##    ##  ,#'     '#,    #''#        ######   ,####,        
            ##       ##  ##   ,#'  ##            #'  '#       #        #'  '#        
            ##       ##  #######   ##           ,######,      #####,   #    #        
            '#,     ,#'  ##    ##  '#,     ,#' ,#      #,         ##   #,  ,#        
             '#######'   ##     ##  '#######'  #'      '#     #####' # '####'        



                  #######################################################
                  #                        -***-                        #
                  #          Department of theory and spectroscopy      #
                  #    Directorship and core code : Frank Neese         #
                  #        Max Planck Institute fuer Kohlenforschung    #
                  #                Kaiser Wilhelm Platz 1               #
                  #                 D-45470 Muelheim/Ruhr               #
                  #                      Germany                        #
                  #                                                     #
                  #                  All rights reserved                #
                  #                        -***-                        #
                  #######################################################


                         Program Version 5.0.3 -  RELEASE  -


 With contributions from (in alphabetic order):
   Daniel Aravena         : Magnetic Suceptibility
   Michael Atanasov       : Ab Initio Ligand Field Theory (pilot matlab implementation)
   Alexander A. Auer      : GIAO ZORA, VPT2 properties, NMR spectrum
   Ute Becker             : Parallelization
   Giovanni Bistoni       : ED, misc. LED, open-shell LED, HFLD
   Martin Brehm           : Molecular dynamics
   Dmytro Bykov           : SCF Hessian
   Vijay G. Chilkuri      : MRCI spin determinant printing, contributions to CSF-ICE
   Dipayan Datta          : RHF DLPNO-CCSD density
   Achintya Kumar Dutta   : EOM-CC, STEOM-CC
   Dmitry Ganyushin       : Spin-Orbit,Spin-Spin,Magnetic field MRCI
   Miquel Garcia          : C-PCM and meta-GGA Hessian, CC/C-PCM, Gaussian charge scheme
   Yang Guo               : DLPNO-NEVPT2, F12-NEVPT2, CIM, IAO-localization
   Andreas Hansen         : Spin unrestricted coupled pair/coupled cluster methods
   Benjamin Helmich-Paris : MC-RPA, TRAH-SCF, COSX integrals
   Lee Huntington         : MR-EOM, pCC
   Robert Izsak           : Overlap fitted RIJCOSX, COSX-SCS-MP3, EOM
   Marcus Kettner         : VPT2
   Christian Kollmar      : KDIIS, OOCD, Brueckner-CCSD(T), CCSD density, CASPT2, CASPT2-K
   Simone Kossmann        : Meta GGA functionals, TD-DFT gradient, OOMP2, MP2 Hessian
   Martin Krupicka        : Initial AUTO-CI
   Lucas Lang             : DCDCAS
   Marvin Lechner         : AUTO-CI (C++ implementation), FIC-MRCC
   Dagmar Lenk            : GEPOL surface, SMD
   Dimitrios Liakos       : Extrapolation schemes; Compound Job, initial MDCI parallelization
   Dimitrios Manganas     : Further ROCIS development; embedding schemes
   Dimitrios Pantazis     : SARC Basis sets
   Anastasios Papadopoulos: AUTO-CI, single reference methods and gradients
   Taras Petrenko         : DFT Hessian,TD-DFT gradient, ASA, ECA, R-Raman, ABS, FL, XAS/XES, NRVS
   Peter Pinski           : DLPNO-MP2, DLPNO-MP2 Gradient
   Christoph Reimann      : Effective Core Potentials
   Marius Retegan         : Local ZFS, SOC
   Christoph Riplinger    : Optimizer, TS searches, QM/MM, DLPNO-CCSD(T), (RO)-DLPNO pert. Triples
   Tobias Risthaus        : Range-separated hybrids, TD-DFT gradient, RPA, STAB
   Michael Roemelt        : Original ROCIS implementation
   Masaaki Saitow         : Open-shell DLPNO-CCSD energy and density
   Barbara Sandhoefer     : DKH picture change effects
   Avijit Sen             : IP-ROCIS
   Kantharuban Sivalingam : CASSCF convergence, NEVPT2, FIC-MRCI
   Bernardo de Souza      : ESD, SOC TD-DFT
   Georgi Stoychev        : AutoAux, RI-MP2 NMR, DLPNO-MP2 response
   Willem Van den Heuvel  : Paramagnetic NMR
   Boris Wezisla          : Elementary symmetry handling
   Frank Wennmohs         : Technical directorship


 We gratefully acknowledge several colleagues who have allowed us to
 interface, adapt or use parts of their codes:
   Stefan Grimme, W. Hujo, H. Kruse, P. Pracht,  : VdW corrections, initial TS optimization,
                  C. Bannwarth, S. Ehlert          DFT functionals, gCP, sTDA/sTD-DF
   Ed Valeev, F. Pavosevic, A. Kumar             : LibInt (2-el integral package), F12 methods
   Garnet Chan, S. Sharma, J. Yang, R. Olivares  : DMRG
   Ulf Ekstrom                                   : XCFun DFT Library
   Mihaly Kallay                                 : mrcc  (arbitrary order and MRCC methods)
   Jiri Pittner, Ondrej Demel                    : Mk-CCSD
   Frank Weinhold                                : gennbo (NPA and NBO analysis)
   Christopher J. Cramer and Donald G. Truhlar   : smd solvation model
   Lars Goerigk                                  : TD-DFT with DH, B97 family of functionals
   V. Asgeirsson, H. Jonsson                     : NEB implementation
   FAccTs GmbH                                   : IRC, NEB, NEB-TS, DLPNO-Multilevel, CI-OPT
                                                   MM, QMMM, 2- and 3-layer-ONIOM, Crystal-QMMM,
                                                   LR-CPCM, SF, NACMEs, symmetry and pop. for TD-DFT,
                                                   nearIR, NL-DFT gradient (VV10), updates on ESD,
                                                   ML-optimized integration grids
   S Lehtola, MJT Oliveira, MAL Marques          : LibXC Library
   Liviu Ungur et al                             : ANISO software


 Your calculation uses the libint2 library for the computation of 2-el integrals
 For citations please refer to: http://libint.valeyev.net

 Your ORCA version has been built with support for libXC version: 5.1.0
 For citations please refer to: https://tddft.org/programs/libxc/

 This ORCA versions uses:
   CBLAS   interface :  Fast vector & matrix operations
   LAPACKE interface :  Fast linear algebra routines
   SCALAPACK package :  Parallel linear algebra routines
   Shared memory     :  Shared parallel matrices
   BLAS/LAPACK       :  OpenBLAS 0.3.15  USE64BITINT DYNAMIC_ARCH NO_AFFINITY SkylakeX SINGLE_THREADED
        Core in use  :  SkylakeX
   Copyright (c) 2011-2014, The OpenBLAS Project


Your calculation utilizes the atom-pairwise dispersion correction
with the Becke-Johnson damping scheme (D3BJ)
Cite in your paper:
S.Grimme, S.Ehrlich, L.Goerigk, J Comput Chem, (2011), 32, 1456–1465 
S.Grimme, J.Antony, S.Ehrlich and H.Krieg, J.Chem.Phys., 132, (2010), 154104 
   

================================================================================

----- Orbital basis set information -----
Your calculation utilizes the basis: aug-cc-pVTZ 
    H, B-Ne : Obtained from the ccRepo (grant-hill.group.shef.ac.uk/ccrepo) Feb. 2017
              R. A. Kendall, T. H. Dunning, Jr., R. J. Harrison, J. Chem. Phys. 96, 6796 (1992)
         He : Obtained from the ccRepo (grant-hill.group.shef.ac.uk/ccrepo) Feb. 2017
              D. E. Woon, T. H. Dunning, Jr., J. Chem. Phys. 100, 2975 (1994)
  Li-Be, Na : Obtained from the ccRepo (grant-hill.group.shef.ac.uk/ccrepo) Feb. 2017
              B. P. Prascher, D. E. Woon, K. A. Peterson, T. H. Dunning, Jr., A. K. Wilson, Theor. Chem. Acc. 128, 69 (2011)
         Mg : Obtained from the Peterson Research Group Website (tyr0.chem.wsu.edu/~kipeters) Feb. 2017
              B. P. Prascher, D. E. Woon, K. A. Peterson, T. H. Dunning, Jr., A. K. Wilson, Theor. Chem. Acc. 128, 69 (2011)
      Al-Ar : Obtained from the ccRepo (grant-hill.group.shef.ac.uk/ccrepo) Feb. 2017
              D. E. Woon, T. H. Dunning, Jr., J. Chem. Phys. 98, 1358 (1993)
      Sc-Zn : Obtained from the ccRepo (grant-hill.group.shef.ac.uk/ccrepo) Feb. 2017
              N. B. Balabanov, K. A. Peterson, J. Chem. Phys. 123, 064107 (2005)
              N. B. Balabanov, K. A. Peterson, J. Chem. Phys. 125, 074110 (2006)
      Ga-Kr : Obtained from the ccRepo (grant-hill.group.shef.ac.uk/ccrepo) Feb. 2017
              A. K. Wilson, D. E. Woon, K. A. Peterson, T. H. Dunning, Jr., J. Chem. Phys. 110, 7667 (1999)
     Ag, Au : Obtained from the Peterson Research Group Website (tyr0.chem.wsu.edu/~kipeters) Feb. 2017
              K. A. Peterson, C. Puzzarini, Theor. Chem. Acc. 114, 283 (2005)

----- AuxJ basis set information -----
Your calculation utilizes the auxiliary basis: def2/J
   F. Weigend, Phys. Chem. Chem. Phys. 8, 1057 (2006).

----- AuxC basis set information -----
Your calculation utilizes the auxiliary basis: aug-cc-pVTZ/C 
  H-He, B-F, Al-Ar, Ga-Kr : Obtained from the EMSL Basis Set Exchange (bse.pnl.gov) Feb. 2017
                            F. Weigend, A. Kohn, C. Hattig, J. Chem. Phys. 116, 3175 (2002)
                   Be, Mg : Obtained from the TURBOMOLE 7.0 basis set library
                            C. Haettig, Phys. Chem. Chem. Phys. 7, 59 (2005)
                       Ne : Obtained from the EMSL Basis Set Exchange (bse.pnl.gov) Feb. 2017
                            C. Haettig, Phys. Chem. Chem. Phys. 7, 59 (2005)
                            F. Weigend, A. Kohn, C. Hattig, J. Chem. Phys. 116, 3175 (2002)
                    Sc-Zn : Obtained from the EMSL Basis Set Exchange (bse.pnl.gov) Feb. 2017
                            J. G. Hill, J. A. Platts, J. Chem. Phys. 128, 044104 (2008)

================================================================================
                                        WARNINGS
                       Please study these warnings very carefully!
================================================================================


WARNING: No MP2 level density has been requested!
         To caclulate MP2 level properties use
         %mp2 Density relaxed end
         or
         %mp2 Density unrelaxed end
         Otherwise for double-hybrid DFT only the energy is correct!

WARNING: There are different parametrizations of Gershom Martin's DSD-DFs
         for use with and without D3(BJ)!
         You are using the D3(BJ) parametrized version,
         consistent with the GMTKN55 benchmark (L. Goerigk et al., PCCP 2017, 19, 32184)

WARNING: The frozen-core approximation is turned on by default for 
         the MP2 part of double-hybrid DFT.

INFO   : the flag for use of the SHARK integral package has been found!

================================================================================
                                       INPUT FILE
================================================================================
NAME = HA.27.avtz.com
|  1> !PAL8
|  2> !RI-DSD-PBEP86 D3BJ aug-cc-pVTZ aug-cc-pVTZ/C TightSCF
|  3> %maxcore 5000
|  4> 
|  5> * xyz 0 1
|  6> C -0.9472603433  0.6430934551 -1.4102926696
|  7> S -1.1854166864  0.6111350531  0.3688335615
|  8> O  0.1032752121  0.2481523286  0.9260651974
|  9> O -1.8842371772  1.8217823175  0.7413122531
| 10> N -2.2224983813 -0.6438806291  0.6446050168
| 11> H -1.8214488257 -1.5430650616  0.3889839192
| 12> H -3.1324898964 -0.4881616497  0.2154522924
| 13> N -1.9225700517  0.4547591129 -2.2242550763
| 14> C -1.4764709376  0.5865324011 -3.5282582401
| 15> C -0.1087301739  0.8860488941 -3.6608408961
| 16> S  0.6258150332  0.9873001222 -2.0856404755
| 17> C -2.268483646  0.4451005403 -4.6809569742
| 18> C -1.683558724  0.6060421853 -5.9158458533
| 19> C -0.3053311448  0.9080203548 -6.0368154786
| 20> C  0.5002269585  1.0502937115 -4.9120517753
| 21> O  0.1385358703  1.0402524734 -7.3089294245
| 22> C  1.5099356114  1.3493153149 -7.5181834797
| 23> C  1.7313497853  1.4431587647 -9.0128836717
| 24> H -3.324581974  0.2169544002 -4.5799372282
| 25> H -2.2586537013  0.5091698198 -6.8306231184
| 26> H  1.5558474128  1.280702112 -4.9867382025
| 27> H  2.1327344657  0.5603956722 -7.0750122498
| 28> H  1.7485034296  2.3000426452 -7.0224677176
| 29> H  1.4845400203  0.4938756883 -9.495351294
| 30> H  2.7782999991  1.6804504193 -9.222161241
| 31> H  1.1022848653  2.226766554 -9.4430241741
| 32> *
| 33> 
| 34>                          ****END OF INPUT****
================================================================================

                       ****************************
                       * Single Point Calculation *
                       ****************************

---------------------------------
CARTESIAN COORDINATES (ANGSTROEM)
---------------------------------
  C     -0.947260    0.643093   -1.410293
  S     -1.185417    0.611135    0.368834
  O      0.103275    0.248152    0.926065
  O     -1.884237    1.821782    0.741312
  N     -2.222498   -0.643881    0.644605
  H     -1.821449   -1.543065    0.388984
  H     -3.132490   -0.488162    0.215452
  N     -1.922570    0.454759   -2.224255
  C     -1.476471    0.586532   -3.528258
  C     -0.108730    0.886049   -3.660841
  S      0.625815    0.987300   -2.085640
  C     -2.268484    0.445101   -4.680957
  C     -1.683559    0.606042   -5.915846
  C     -0.305331    0.908020   -6.036815
  C      0.500227    1.050294   -4.912052
  O      0.138536    1.040252   -7.308929
  C      1.509936    1.349315   -7.518183
  C      1.731350    1.443159   -9.012884
  H     -3.324582    0.216954   -4.579937
  H     -2.258654    0.509170   -6.830623
  H      1.555847    1.280702   -4.986738
  H      2.132734    0.560396   -7.075012
  H      1.748503    2.300043   -7.022468
  H      1.484540    0.493876   -9.495351
  H      2.778300    1.680450   -9.222161
  H      1.102285    2.226767   -9.443024

----------------------------
CARTESIAN COORDINATES (A.U.)
----------------------------
  NO LB      ZA    FRAG     MASS         X           Y           Z
   0 C     6.0000    0    12.011   -1.790063    1.215271   -2.665067
   1 S    16.0000    0    32.060   -2.240113    1.154878    0.696994
   2 O     8.0000    0    15.999    0.195162    0.468940    1.750010
   3 O     8.0000    0    15.999   -3.560692    3.442670    1.400877
   4 N     7.0000    0    14.007   -4.199913   -1.216758    1.218127
   5 H     1.0000    0     1.008   -3.442039   -2.915970    0.735073
   6 H     1.0000    0     1.008   -5.919548   -0.922492    0.407146
   7 N     7.0000    0    14.007   -3.633131    0.859370   -4.203233
   8 C     6.0000    0    12.011   -2.790126    1.108386   -6.667442
   9 C     6.0000    0    12.011   -0.205470    1.674390   -6.917987
  10 S    16.0000    0    32.060    1.182619    1.865727   -3.941289
  11 C     6.0000    0    12.011   -4.286813    0.841118   -8.845727
  12 C     6.0000    0    12.011   -3.181465    1.145254  -11.179329
  13 C     6.0000    0    12.011   -0.576992    1.715910  -11.407928
  14 C     6.0000    0    12.011    0.945292    1.984767   -9.282433
  15 O     8.0000    0    15.999    0.261795    1.965792  -13.811875
  16 C     6.0000    0    12.011    2.853365    2.549836  -14.207308
  17 C     6.0000    0    12.011    3.271777    2.727175  -17.031882
  18 H     1.0000    0     1.008   -6.282549    0.409984   -8.654827
  19 H     1.0000    0     1.008   -4.268237    0.962192  -12.908007
  20 H     1.0000    0     1.008    2.940126    2.420176   -9.423570
  21 H     1.0000    0     1.008    4.030284    1.058994  -13.369836
  22 H     1.0000    0     1.008    3.304193    4.346451  -13.270541
  23 H     1.0000    0     1.008    2.805374    0.933290  -17.943613
  24 H     1.0000    0     1.008    5.250226    3.175591  -17.427359
  25 H     1.0000    0     1.008    2.083017    4.207979  -17.844730

--------------------------------
INTERNAL COORDINATES (ANGSTROEM)
--------------------------------
 C      0   0   0     0.000000000000     0.00000000     0.00000000
 S      1   0   0     1.795279902802     0.00000000     0.00000000
 O      2   1   0     1.450169081036   105.50756766     0.00000000
 O      2   1   3     1.446636531012   107.71887928   132.59062532
 N      2   1   3     1.651257914447   105.20953594   246.29304350
 H      5   2   1     1.017209681057   112.47387701    64.35706827
 H      5   2   1     1.018088905233   112.00721644   296.57146105
 N      1   2   3     1.284224922384   121.65179500   154.67371983
 C      8   1   2     1.384482889127   109.77382004   177.51282279
 C      9   8   1     1.406414976789   114.98701746   359.96829718
 S     10   9   8     1.740995358272   109.71866576     0.51560478
 C      9   8   1     1.405703195242   125.53696062   179.90811241
 C     12   9   8     1.375859702585   118.99249329   179.96134101
 C     13  12   9     1.416098769566   121.02293630     0.07962077
 C     14  13  12     1.390776385362   121.09467379     0.05255959
 O     14  13  12     1.353801001490   114.84708347   180.03750847
 C     16  14  13     1.421282642370   118.42090532   179.72864669
 C     17  16  14     1.513921891459   107.45508165   180.18917297
 H     12   9   8     1.085172488008   119.54779327     0.24587858
 H     13  12   9     1.084866781157   121.39992600   180.22467955
 H     15  14  13     1.083051539386   122.04180792   179.97743424
 H     17  16  14     1.098486847698   109.35934984    59.50009005
 H     17  16  14     1.098422130720   109.35006185   300.89043240
 H     18  17  16     1.093082076427   110.42150031   299.95515308
 H     18  17  16     1.093713481919   110.02096355   180.00773390
 H     18  17  16     1.093062071811   110.41340787    60.06799866

---------------------------
INTERNAL COORDINATES (A.U.)
---------------------------
 C      0   0   0     0.000000000000     0.00000000     0.00000000
 S      1   0   0     3.392587350029     0.00000000     0.00000000
 O      2   1   0     2.740422411038   105.50756766     0.00000000
 O      2   1   3     2.733746858938   107.71887928   132.59062532
 N      2   1   3     3.120425234774   105.20953594   246.29304350
 H      5   2   1     1.922247717971   112.47387701    64.35706827
 H      5   2   1     1.923909210875   112.00721644   296.57146105
 N      1   2   3     2.426833397662   121.65179500   154.67371983
 C      8   1   2     2.616293497549   109.77382004   177.51282279
 C      9   8   1     2.657739136777   114.98701746   359.96829718
 S     10   9   8     3.290004427562   109.71866576     0.51560478
 C      9   8   1     2.656394064584   125.53696062   179.90811241
 C     12   9   8     2.599998036584   118.99249329   179.96134101
 C     13  12   9     2.676038853063   121.02293630     0.07962077
 C     14  13  12     2.628186481859   121.09467379     0.05255959
 O     14  13  12     2.558313132645   114.84708347   180.03750847
 C     16  14  13     2.685834952976   118.42090532   179.72864669
 C     17  16  14     2.860897763006   107.45508165   180.18917297
 H     12   9   8     2.050678810401   119.54779327     0.24587858
 H     13  12   9     2.050101108175   121.39992600   180.22467955
 H     15  14  13     2.046670798361   122.04180792   179.97743424
 H     17  16  14     2.075839303864   109.35934984    59.50009005
 H     17  16  14     2.075717006498   109.35006185   300.89043240
 H     18  17  16     2.065625766346   110.42150031   299.95515308
 H     18  17  16     2.066818949804   110.02096355   180.00773390
 H     18  17  16     2.065587963099   110.41340787    60.06799866

---------------------
BASIS SET INFORMATION
---------------------
There are 5 groups of distinct atoms

 Group   1 Type C   : 19s6p3d2f contracted to 5s4p3d2f pattern {88111/3111/111/11}
 Group   2 Type S   : 42s17p3d2f contracted to 6s5p3d2f pattern {131313111/77111/111/11}
 Group   3 Type O   : 19s6p3d2f contracted to 5s4p3d2f pattern {88111/3111/111/11}
 Group   4 Type N   : 19s6p3d2f contracted to 5s4p3d2f pattern {88111/3111/111/11}
 Group   5 Type H   : 6s3p2d contracted to 4s3p2d pattern {3111/111/11}

Atom   0C    basis set group =>   1
Atom   1S    basis set group =>   2
Atom   2O    basis set group =>   3
Atom   3O    basis set group =>   3
Atom   4N    basis set group =>   4
Atom   5H    basis set group =>   5
Atom   6H    basis set group =>   5
Atom   7N    basis set group =>   4
Atom   8C    basis set group =>   1
Atom   9C    basis set group =>   1
Atom  10S    basis set group =>   2
Atom  11C    basis set group =>   1
Atom  12C    basis set group =>   1
Atom  13C    basis set group =>   1
Atom  14C    basis set group =>   1
Atom  15O    basis set group =>   3
Atom  16C    basis set group =>   1
Atom  17C    basis set group =>   1
Atom  18H    basis set group =>   5
Atom  19H    basis set group =>   5
Atom  20H    basis set group =>   5
Atom  21H    basis set group =>   5
Atom  22H    basis set group =>   5
Atom  23H    basis set group =>   5
Atom  24H    basis set group =>   5
Atom  25H    basis set group =>   5
---------------------------------
AUXILIARY/J BASIS SET INFORMATION
---------------------------------
There are 5 groups of distinct atoms

 Group   1 Type C   : 12s5p4d2f1g contracted to 6s4p3d1f1g pattern {711111/2111/211/2/1}
 Group   2 Type S   : 14s5p5d2f1g contracted to 8s4p3d1f1g pattern {71111111/2111/311/2/1}
 Group   3 Type O   : 12s5p4d2f1g contracted to 6s4p3d1f1g pattern {711111/2111/211/2/1}
 Group   4 Type N   : 12s5p4d2f1g contracted to 6s4p3d1f1g pattern {711111/2111/211/2/1}
 Group   5 Type H   : 5s2p1d contracted to 3s1p1d pattern {311/2/1}

Atom   0C    basis set group =>   1
Atom   1S    basis set group =>   2
Atom   2O    basis set group =>   3
Atom   3O    basis set group =>   3
Atom   4N    basis set group =>   4
Atom   5H    basis set group =>   5
Atom   6H    basis set group =>   5
Atom   7N    basis set group =>   4
Atom   8C    basis set group =>   1
Atom   9C    basis set group =>   1
Atom  10S    basis set group =>   2
Atom  11C    basis set group =>   1
Atom  12C    basis set group =>   1
Atom  13C    basis set group =>   1
Atom  14C    basis set group =>   1
Atom  15O    basis set group =>   3
Atom  16C    basis set group =>   1
Atom  17C    basis set group =>   1
Atom  18H    basis set group =>   5
Atom  19H    basis set group =>   5
Atom  20H    basis set group =>   5
Atom  21H    basis set group =>   5
Atom  22H    basis set group =>   5
Atom  23H    basis set group =>   5
Atom  24H    basis set group =>   5
Atom  25H    basis set group =>   5
---------------------------------
AUXILIARY/C BASIS SET INFORMATION
---------------------------------
There are 5 groups of distinct atoms

 Group   1 Type C   : 9s7p6d4f2g contracted to 9s7p6d4f2g pattern {111111111/1111111/111111/1111/11}
 Group   2 Type S   : 11s9p8d6f3g contracted to 11s9p8d6f3g pattern {11111111111/111111111/11111111/111111/111}
 Group   3 Type O   : 9s7p6d4f2g contracted to 9s7p6d4f2g pattern {111111111/1111111/111111/1111/11}
 Group   4 Type N   : 9s7p6d4f2g contracted to 9s7p6d4f2g pattern {111111111/1111111/111111/1111/11}
 Group   5 Type H   : 5s4p3d2f contracted to 5s4p3d2f pattern {11111/1111/111/11}

Atom   0C    basis set group =>   1
Atom   1S    basis set group =>   2
Atom   2O    basis set group =>   3
Atom   3O    basis set group =>   3
Atom   4N    basis set group =>   4
Atom   5H    basis set group =>   5
Atom   6H    basis set group =>   5
Atom   7N    basis set group =>   4
Atom   8C    basis set group =>   1
Atom   9C    basis set group =>   1
Atom  10S    basis set group =>   2
Atom  11C    basis set group =>   1
Atom  12C    basis set group =>   1
Atom  13C    basis set group =>   1
Atom  14C    basis set group =>   1
Atom  15O    basis set group =>   3
Atom  16C    basis set group =>   1
Atom  17C    basis set group =>   1
Atom  18H    basis set group =>   5
Atom  19H    basis set group =>   5
Atom  20H    basis set group =>   5
Atom  21H    basis set group =>   5
Atom  22H    basis set group =>   5
Atom  23H    basis set group =>   5
Atom  24H    basis set group =>   5
Atom  25H    basis set group =>   5


           ************************************************************
           *        Program running with 8 parallel MPI-processes     *
           *              working on a common directory               *
           ************************************************************
------------------------------------------------------------------------------
                           ORCA GTO INTEGRAL CALCULATION
                           -- RI-GTO INTEGRALS CHOSEN --
------------------------------------------------------------------------------
------------------------------------------------------------------------------
                   ___                                                        
                  /   \      - P O W E R E D   B Y -                         
                 /     \                                                     
                 |  |  |   _    _      __       _____    __    __             
                 |  |  |  | |  | |    /  \     |  _  \  |  |  /  |          
                  \  \/   | |  | |   /    \    | | | |  |  | /  /          
                 / \  \   | |__| |  /  /\  \   | |_| |  |  |/  /          
                |  |  |   |  __  | /  /__\  \  |    /   |      \           
                |  |  |   | |  | | |   __   |  |    \   |  |\   \          
                \     /   | |  | | |  |  |  |  | |\  \  |  | \   \       
                 \___/    |_|  |_| |__|  |__|  |_| \__\ |__|  \__/        
                                                                              
                      - O R C A' S   B I G   F R I E N D -                    
                                      &                                       
                       - I N T E G R A L  F E E D E R -                       
                                                                              
 v1 FN, 2020, v2 2021                                                         
------------------------------------------------------------------------------


Reading SHARK input file HA.27.avtz.SHARKINP.tmp ... ok
----------------------
SHARK INTEGRAL PACKAGE
----------------------

Number of atoms                             ...     26
Number of basis functions                   ...   1108
Number of shells                            ...    432
Maximum angular momentum                    ...      3
Integral batch strategy                     ... SHARK/LIBINT Hybrid
RI-J (if used) integral strategy            ... SPLIT-RIJ (Revised 2003 algorithm where possible)
Printlevel                                  ...      1
Contraction scheme used                     ... PARTIAL GENERAL contraction
Coulomb Range Separation                    ... NOT USED
Exchange Range Separation                   ... NOT USED
Finite Nucleus Model                        ... NOT USED
Auxiliary Coulomb fitting basis             ... AVAILABLE
   # of basis functions in Aux-J            ...    898
   # of shells in Aux-J                     ...    294
   Maximum angular momentum in Aux-J        ...      4
Auxiliary J/K fitting basis                 ... NOT available
Auxiliary Correlation fitting basis         ... AVAILABLE
   # of basis functions in Aux-C            ...   2238
   # of shells in Aux-C                     ...    606
   Maximum angular momentum in Aux-C        ...      4
Auxiliary 'external' fitting basis          ... NOT available
Integral threshold                          ...     2.500000e-11
Primitive cut-off                           ...     2.500000e-12
Primitive pair pre-selection threshold      ...     2.500000e-12

Calculating pre-screening integrals         ... done (  0.1 sec) Dimension = 432
Calculating pre-screening integrals (ORCA)  ... done (  0.2 sec) Dimension = 318
Organizing shell pair data                  ... done (  0.6 sec)
Shell pair information
Total number of shell pairs                 ...     93528
Shell pairs after pre-screening             ...     62111
Total number of primitive shell pairs       ...    115512
Primitive shell pairs kept                  ...     70847
          la=0 lb=0:  13626 shell pairs
          la=1 lb=0:  16341 shell pairs
          la=1 lb=1:   4476 shell pairs
          la=2 lb=0:  10444 shell pairs
          la=2 lb=1:   5628 shell pairs
          la=2 lb=2:   1827 shell pairs
          la=3 lb=0:   4953 shell pairs
          la=3 lb=1:   2672 shell pairs
          la=3 lb=2:   1712 shell pairs
          la=3 lb=3:    432 shell pairs

Calculating one electron integrals          ... done (  0.1 sec)
Calculating RI/J V-Matrix + Cholesky decomp.... done (  0.0 sec)
Calculating RI/C V-Matrix + Cholesky decomp.... done (  0.2 sec)
Calculating Nuclear repulsion               ... done (  0.0 sec) ENN=   1339.355648174986 Eh

SHARK setup successfully completed in   2.0 seconds

Maximum memory used throughout the entire GTOINT-calculation: 95.5 MB


           ************************************************************
           *        Program running with 8 parallel MPI-processes     *
           *              working on a common directory               *
           ************************************************************
-------------------------------------------------------------------------------
                                 ORCA SCF
-------------------------------------------------------------------------------

------------
SCF SETTINGS
------------
Hamiltonian:
 Density Functional     Method          .... DFT(GTOs)
 Exchange Functional    Exchange        .... PBE
   PBE kappa parameter   XKappa         ....  0.804000
   PBE mue parameter    XMuePBE         ....  0.219520
 Correlation Functional Correlation     .... P86
 LDA part of GGA corr.  LDAOpt          .... VWN-5
 Gradients option       PostSCFGGA      .... off
 Hybrid DFT is turned on
   Fraction HF Exchange ScalHFX         ....  0.700000
   Scaling of DF-GGA-X  ScalDFX         ....  0.300000
   Scaling of DF-GGA-C  ScalDFC         ....  0.430000
   Scaling of DF-LDA-C  ScalLDAC        ....  0.430000
   Perturbative correction              ....  1.000000
   Density functional embedding theory  .... OFF
   NL short-range parameter             .... 14.200000
 RI-approximation to the Coulomb term is turned on
   Number of AuxJ basis functions       .... 898
   RIJ-COSX (HFX calculated with COS-X)).... on


General Settings:
 Integral files         IntName         .... HA.27.avtz
 Hartree-Fock type      HFTyp           .... RHF
 Total Charge           Charge          ....    0
 Multiplicity           Mult            ....    1
 Number of Electrons    NEL             ....  134
 Basis Dimension        Dim             ....  974
 Nuclear Repulsion      ENuc            ....   1339.3556481750 Eh

Convergence Acceleration:
 DIIS                   CNVDIIS         .... on
   Start iteration      DIISMaxIt       ....    12
   Startup error        DIISStart       ....  0.200000
   # of expansion vecs  DIISMaxEq       ....     5
   Bias factor          DIISBfac        ....   1.050
   Max. coefficient     DIISMaxC        ....  10.000
 Trust-Rad. Augm. Hess. CNVTRAH         .... auto
   Auto Start mean grad. ratio tolernc. ....  1.125000
   Auto Start start iteration           ....    20
   Auto Start num. interpolation iter.  ....    10
   Max. Number of Micro iterations      ....    16
   Max. Number of Macro iterations      .... Maxiter - #DIIS iter
   Number of Davidson start vectors     ....     2
   Converg. threshold I  (grad. norm)   ....   1.000e-05
   Converg. threshold II (energy diff.) ....   1.000e-08
   Grad. Scal. Fac. for Micro threshold ....   0.100
   Minimum threshold for Micro iter.    ....   0.010
   NR start threshold (gradient norm)   ....   0.001
   Initial trust radius                 ....   0.400
   Minimum AH scaling param. (alpha)    ....   1.000
   Maximum AH scaling param. (alpha)    .... 1000.000
   Orbital update algorithm             .... Taylor
   White noise on init. David. guess    .... on
   Maximum white noise                  ....   0.010
   Quad. conv. algorithm                .... NR
 SOSCF                  CNVSOSCF        .... on
   Start iteration      SOSCFMaxIt      ....   150
   Startup grad/error   SOSCFStart      ....  0.003300
 Level Shifting         CNVShift        .... on
   Level shift para.    LevelShift      ....    0.2500
   Turn off err/grad.   ShiftErr        ....    0.0010
 Zerner damping         CNVZerner       .... off
 Static damping         CNVDamp         .... on
   Fraction old density DampFac         ....    0.7000
   Max. Damping (<1)    DampMax         ....    0.9800
   Min. Damping (>=0)   DampMin         ....    0.0000
   Turn off err/grad.   DampErr         ....    0.1000
 Fernandez-Rico         CNVRico         .... off

SCF Procedure:
 Maximum # iterations   MaxIter         ....   125
 SCF integral mode      SCFMode         .... Direct
   Integral package                     .... SHARK and LIBINT hybrid scheme
 Reset frequency        DirectResetFreq ....    20
 Integral Threshold     Thresh          ....  2.500e-11 Eh
 Primitive CutOff       TCut            ....  2.500e-12 Eh

Convergence Tolerance:
 Convergence Check Mode ConvCheckMode   .... Total+1el-Energy
 Convergence forced     ConvForced      .... 0
 Energy Change          TolE            ....  1.000e-08 Eh
 1-El. energy change                    ....  1.000e-05 Eh
 Orbital Gradient       TolG            ....  1.000e-05
 Orbital Rotation angle TolX            ....  1.000e-05
 DIIS Error             TolErr          ....  5.000e-07


Diagonalization of the overlap matrix:
Smallest eigenvalue                        ... 4.522e-07
Time for diagonalization                   ...    0.179 sec
Threshold for overlap eigenvalues          ... 1.000e-08
Number of eigenvalues below threshold      ... 0
Time for construction of square roots      ...    0.091 sec
Total time needed                          ...    0.276 sec

Time for model grid setup =    0.218 sec

------------------------------
INITIAL GUESS: MODEL POTENTIAL
------------------------------
Loading Hartree-Fock densities                     ... done
Calculating cut-offs                               ... done
Initializing the effective Hamiltonian             ... done
Setting up the integral package (SHARK)            ... done
Starting the Coulomb interaction                   ... done (   0.7 sec)
Reading the grid                                   ... done
Mapping shells                                     ... done
Starting the XC term evaluation                    ... done (   0.6 sec)
  promolecular density results
     # of electrons  =    133.995546006
     EX              =   -136.484674728
     EC              =     -0.034747947
     EX+EC           =   -136.519422674
Transforming the Hamiltonian                       ... done (   0.1 sec)
Diagonalizing the Hamiltonian                      ... done (   0.2 sec)
Back transforming the eigenvectors                 ... done (   0.0 sec)
Now organizing SCF variables                       ... done
                      ------------------
                      INITIAL GUESS DONE (   1.8 sec)
                      ------------------
-------------------
DFT GRID GENERATION
-------------------

General Integration Accuracy     IntAcc      ... 4.388
Radial Grid Type                 RadialGrid  ... OptM3 with GC (2021)
Angular Grid (max. ang.)         AngularGrid ... 4 (Lebedev-302)
Angular grid pruning method      GridPruning ... 4 (adaptive)
Weight generation scheme         WeightScheme... Becke
Basis function cutoff            BFCut       ... 1.0000e-11
Integration weight cutoff        WCut        ... 1.0000e-14
Angular grids for H and He will be reduced by one unit
Partially contracted basis set               ... off
Rotationally invariant grid construction     ... off

Total number of grid points                  ...   136928
Total number of batches                      ...     2152
Average number of points per batch           ...       63
Average number of grid points per atom       ...     5266
Time for grid setup =    0.847 sec

--------------------
COSX GRID GENERATION
--------------------

GRIDX 1
-------
General Integration Accuracy     IntAcc      ... 3.816
Radial Grid Type                 RadialGrid  ... OptM3 with GC (2021)
Angular Grid (max. ang.)         AngularGrid ... 1 (Lebedev-50)
Angular grid pruning method      GridPruning ... 4 (adaptive)
Weight generation scheme         WeightScheme... Becke
Basis function cutoff            BFCut       ... 1.0000e-11
Integration weight cutoff        WCut        ... 1.0000e-14
Angular grids for H and He will be reduced by one unit
Partially contracted basis set               ... on
Rotationally invariant grid construction     ... off

Total number of grid points                  ...    17053
Total number of batches                      ...      279
Average number of points per batch           ...       61
Average number of grid points per atom       ...      656
UseSFitting                                  ... on

GRIDX 2
-------
General Integration Accuracy     IntAcc      ... 4.020
Radial Grid Type                 RadialGrid  ... OptM3 with GC (2021)
Angular Grid (max. ang.)         AngularGrid ... 2 (Lebedev-110)
Angular grid pruning method      GridPruning ... 4 (adaptive)
Weight generation scheme         WeightScheme... Becke
Basis function cutoff            BFCut       ... 1.0000e-11
Integration weight cutoff        WCut        ... 1.0000e-14
Angular grids for H and He will be reduced by one unit
Partially contracted basis set               ... on
Rotationally invariant grid construction     ... off

Total number of grid points                  ...    41740
Total number of batches                      ...      665
Average number of points per batch           ...       62
Average number of grid points per atom       ...     1605
UseSFitting                                  ... on

GRIDX 3
-------
General Integration Accuracy     IntAcc      ... 4.338
Radial Grid Type                 RadialGrid  ... OptM3 with GC (2021)
Angular Grid (max. ang.)         AngularGrid ... 3 (Lebedev-194)
Angular grid pruning method      GridPruning ... 4 (adaptive)
Weight generation scheme         WeightScheme... Becke
Basis function cutoff            BFCut       ... 1.0000e-11
Integration weight cutoff        WCut        ... 1.0000e-14
Angular grids for H and He will be reduced by one unit
Partially contracted basis set               ... on
Rotationally invariant grid construction     ... off

Total number of grid points                  ...    93244
Total number of batches                      ...     1469
Average number of points per batch           ...       63
Average number of grid points per atom       ...     3586
UseSFitting                                  ... on

Time for X-Grid setup             =    1.832 sec

 re-compute Schwartz prescreening matrix in partically contracted basis (1) ...done (   0.110 sec)
--------------
SCF ITERATIONS
--------------
ITER       Energy         Delta-E        Max-DP      RMS-DP      [F,P]     Damp
               ***  Starting incremental Fock matrix formation  ***
  0  -1476.9276664617   0.000000000000 0.27296336  0.00165694  0.2913173 0.7000
  1  -1477.1603316085  -0.232665146783 0.21322810  0.00127322  0.1476628 0.7000
                               ***Turning on DIIS***
  2  -1477.2710170676  -0.110685459039 0.49788305  0.00295946  0.0660256 0.0000
  3  -1477.4586408161  -0.187623748579 0.05024043  0.00053317  0.0640167 0.0000
  4  -1477.4878893533  -0.029248537184 0.01864119  0.00019577  0.0098539 0.0000
  5  -1477.4890363411  -0.001146987764 0.00967173  0.00008864  0.0055940 0.0000
                      *** Initiating the SOSCF procedure ***
                           *** Shutting down DIIS ***
                      *** Re-Reading the Fockian *** 
                      *** Removing any level shift *** 
ITER      Energy       Delta-E        Grad      Rot      Max-DP    RMS-DP
  6  -1477.48935458  -0.0003182341  0.001481  0.001481  0.007406  0.000067
               *** Restarting incremental Fock matrix formation ***
  7  -1477.48943104  -0.0000764686  0.000886  0.002319  0.176157  0.001057
  8  -1477.48945810  -0.0000270562  0.000264  0.001662  0.116786  0.000519
  9  -1477.48946373  -0.0000056276  0.000159  0.000135  0.111477  0.000431
 10  -1477.48946635  -0.0000026259  0.000031  0.000099  0.010668  0.000095
 11  -1477.48946645  -0.0000000971  0.000020  0.000057  0.004014  0.000031
 12  -1477.48946647  -0.0000000232  0.000005  0.000018  0.010049  0.000064
                  ***Gradient check signals convergence***
              ***Rediagonalizing the Fockian in SOSCF/NRSCF***

               *****************************************************
               *                     SUCCESS                       *
               *           SCF CONVERGED AFTER  13 CYCLES          *
               *****************************************************

Old exchange energy                            =    -96.886992901 Eh
New exchange energy                            =    -96.886790212 Eh
Exchange energy change after final integration =      0.000202689 Eh
Total energy after final integration           =  -1477.489263780 Eh
Final COS-X integration done in                =    39.856 sec

----------------
TOTAL SCF ENERGY
----------------

Total Energy       :        -1477.48926378 Eh          -40204.52683 eV

Components:
Nuclear Repulsion  :         1339.35564817 Eh           36445.72005 eV
Electronic Energy  :        -2816.84491195 Eh          -76650.24688 eV
One Electron Energy:        -4690.60687289 Eh         -127637.90200 eV
Two Electron Energy:         1873.76196094 Eh           50987.65512 eV
Max COSX asymmetry :            0.00002068 Eh               0.00056 eV

Virial components:
Potential Energy   :        -2951.29644923 Eh          -80308.85921 eV
Kinetic Energy     :         1473.80718545 Eh           40104.33238 eV
Virial Ratio       :            2.00249834


DFT components:
N(Alpha)           :       67.000066009545 electrons
N(Beta)            :       67.000066009545 electrons
N(Total)           :      134.000132019091 electrons
E(X)               :      -41.363590674398 Eh       
E(C)               :       -2.261685632037 Eh       
E(XC)              :      -43.625276306435 Eh       
DFET-embed. en.    :        0.000000000000 Eh       

---------------
SCF CONVERGENCE
---------------

  Last Energy change         ...    4.6500e-09  Tolerance :   1.0000e-08
  Last MAX-Density change    ...    3.9968e-15  Tolerance :   1.0000e-07
  Last RMS-Density change    ...    1.5749e-17  Tolerance :   5.0000e-09
  Last Orbital Gradient      ...    2.0532e-06  Tolerance :   1.0000e-05
  Last Orbital Rotation      ...    8.9029e-06  Tolerance :   1.0000e-05

             **** THE GBW FILE WAS UPDATED (HA.27.avtz.gbw) ****
             **** DENSITY HA.27.avtz.scfp WAS UPDATED ****
             **** ENERGY FILE WAS UPDATED (HA.27.avtz.en.tmp) ****
             **** THE GBW FILE WAS UPDATED (HA.27.avtz.gbw) ****
             **** DENSITY HA.27.avtz.scfp WAS UPDATED ****
----------------
ORBITAL ENERGIES
----------------

  NO   OCC          E(Eh)            E(eV) 
   0   2.0000     -91.054054     -2477.7068 
   1   2.0000     -90.866994     -2472.6166 
   2   2.0000     -20.071002      -546.1597 
   3   2.0000     -20.027537      -544.9770 
   4   2.0000     -20.025568      -544.9234 
   5   2.0000     -15.146586      -412.1596 
   6   2.0000     -15.139593      -411.9693 
   7   2.0000     -10.945387      -297.8391 
   8   2.0000     -10.926883      -297.3356 
   9   2.0000     -10.904728      -296.7327 
  10   2.0000     -10.900788      -296.6255 
  11   2.0000     -10.889724      -296.3244 
  12   2.0000     -10.865609      -295.6683 
  13   2.0000     -10.863141      -295.6011 
  14   2.0000     -10.854760      -295.3730 
  15   2.0000     -10.837241      -294.8963 
  16   2.0000      -8.796582      -239.3672 
  17   2.0000      -8.642643      -235.1783 
  18   2.0000      -6.582947      -179.1311 
  19   2.0000      -6.581454      -179.0905 
  20   2.0000      -6.579664      -179.0418 
  21   2.0000      -6.425098      -174.8358 
  22   2.0000      -6.422784      -174.7728 
  23   2.0000      -6.421681      -174.7428 
  24   2.0000      -1.350877       -36.7592 
  25   2.0000      -1.311055       -35.6756 
  26   2.0000      -1.234100       -33.5816 
  27   2.0000      -1.204438       -32.7744 
  28   2.0000      -1.122846       -30.5542 
  29   2.0000      -1.063467       -28.9384 
  30   2.0000      -1.001568       -27.2540 
  31   2.0000      -0.968408       -26.3517 
  32   2.0000      -0.928422       -25.2636 
  33   2.0000      -0.922324       -25.0977 
  34   2.0000      -0.845491       -23.0070 
  35   2.0000      -0.802565       -21.8389 
  36   2.0000      -0.764178       -20.7943 
  37   2.0000      -0.751185       -20.4408 
  38   2.0000      -0.731197       -19.8969 
  39   2.0000      -0.673307       -18.3216 
  40   2.0000      -0.668240       -18.1837 
  41   2.0000      -0.664136       -18.0721 
  42   2.0000      -0.638236       -17.3673 
  43   2.0000      -0.624325       -16.9887 
  44   2.0000      -0.619217       -16.8497 
  45   2.0000      -0.592555       -16.1242 
  46   2.0000      -0.577033       -15.7019 
  47   2.0000      -0.572667       -15.5831 
  48   2.0000      -0.553484       -15.0611 
  49   2.0000      -0.540340       -14.7034 
  50   2.0000      -0.531722       -14.4689 
  51   2.0000      -0.519284       -14.1304 
  52   2.0000      -0.511130       -13.9086 
  53   2.0000      -0.497800       -13.5458 
  54   2.0000      -0.469945       -12.7878 
  55   2.0000      -0.466596       -12.6967 
  56   2.0000      -0.465560       -12.6685 
  57   2.0000      -0.452368       -12.3096 
  58   2.0000      -0.446731       -12.1562 
  59   2.0000      -0.439004       -11.9459 
  60   2.0000      -0.435899       -11.8614 
  61   2.0000      -0.428533       -11.6610 
  62   2.0000      -0.411399       -11.1947 
  63   2.0000      -0.401587       -10.9277 
  64   2.0000      -0.397931       -10.8283 
  65   2.0000      -0.318141        -8.6571 
  66   2.0000      -0.295919        -8.0524 
  67   0.0000       0.009745         0.2652 
  68   0.0000       0.010128         0.2756 
  69   0.0000       0.015279         0.4158 
  70   0.0000       0.021161         0.5758 
  71   0.0000       0.025987         0.7072 
  72   0.0000       0.027839         0.7575 
  73   0.0000       0.035067         0.9542 
  74   0.0000       0.036874         1.0034 
  75   0.0000       0.046456         1.2641 
  76   0.0000       0.049629         1.3505 
  77   0.0000       0.051451         1.4000 
  78   0.0000       0.055797         1.5183 
  79   0.0000       0.060212         1.6384 
  80   0.0000       0.067469         1.8359 
  81   0.0000       0.069396         1.8884 
  82   0.0000       0.079067         2.1515 
  83   0.0000       0.082506         2.2451 
  84   0.0000       0.084872         2.3095 
  85   0.0000       0.087442         2.3794 
  86   0.0000       0.089889         2.4460 
  87   0.0000       0.090872         2.4728 
  88   0.0000       0.095048         2.5864 
  89   0.0000       0.098219         2.6727 
  90   0.0000       0.098862         2.6902 
  91   0.0000       0.103405         2.8138 
  92   0.0000       0.104052         2.8314 
  93   0.0000       0.105795         2.8788 
  94   0.0000       0.110130         2.9968 
  95   0.0000       0.111980         3.0471 
  96   0.0000       0.116655         3.1744 
  97   0.0000       0.117548         3.1987 
  98   0.0000       0.120453         3.2777 
  99   0.0000       0.124251         3.3810 
 100   0.0000       0.130843         3.5604 
 101   0.0000       0.133810         3.6411 
 102   0.0000       0.138164         3.7596 
 103   0.0000       0.142935         3.8895 
 104   0.0000       0.143859         3.9146 
 105   0.0000       0.145161         3.9500 
 106   0.0000       0.147295         4.0081 
 107   0.0000       0.149181         4.0594 
 108   0.0000       0.152379         4.1465 
 109   0.0000       0.160931         4.3792 
 110   0.0000       0.165709         4.5092 
 111   0.0000       0.167717         4.5638 
 112   0.0000       0.171891         4.6774 
 113   0.0000       0.176197         4.7946 
 114   0.0000       0.180077         4.9001 
 115   0.0000       0.183384         4.9901 
 116   0.0000       0.186279         5.0689 
 117   0.0000       0.189784         5.1643 
 118   0.0000       0.192939         5.2501 
 119   0.0000       0.195601         5.3226 
 120   0.0000       0.201510         5.4834 
 121   0.0000       0.203283         5.5316 
 122   0.0000       0.205726         5.5981 
 123   0.0000       0.209426         5.6988 
 124   0.0000       0.211261         5.7487 
 125   0.0000       0.215961         5.8766 
 126   0.0000       0.218489         5.9454 
 127   0.0000       0.222620         6.0578 
 128   0.0000       0.223664         6.0862 
 129   0.0000       0.225720         6.1421 
 130   0.0000       0.232024         6.3137 
 131   0.0000       0.234456         6.3799 
 132   0.0000       0.237320         6.4578 
 133   0.0000       0.239475         6.5164 
 134   0.0000       0.240772         6.5517 
 135   0.0000       0.243524         6.6266 
 136   0.0000       0.246977         6.7206 
 137   0.0000       0.249753         6.7961 
 138   0.0000       0.253112         6.8875 
 139   0.0000       0.255162         6.9433 
 140   0.0000       0.260611         7.0916 
 141   0.0000       0.261616         7.1189 
 142   0.0000       0.265351         7.2206 
 143   0.0000       0.268373         7.3028 
 144   0.0000       0.275599         7.4994 
 145   0.0000       0.277640         7.5550 
 146   0.0000       0.280768         7.6401 
 147   0.0000       0.284163         7.7325 
 148   0.0000       0.285967         7.7815 
 149   0.0000       0.290441         7.9033 
 150   0.0000       0.293049         7.9743 
 151   0.0000       0.294625         8.0171 
 152   0.0000       0.299818         8.1585 
 153   0.0000       0.303715         8.2645 
 154   0.0000       0.305093         8.3020 
 155   0.0000       0.307039         8.3550 
 156   0.0000       0.310981         8.4622 
 157   0.0000       0.314677         8.5628 
 158   0.0000       0.317128         8.6295 
 159   0.0000       0.320458         8.7201 
 160   0.0000       0.326920         8.8959 
 161   0.0000       0.331085         9.0093 
 162   0.0000       0.331923         9.0321 
 163   0.0000       0.336571         9.1586 
 164   0.0000       0.339389         9.2352 
 165   0.0000       0.345483         9.4011 
 166   0.0000       0.346842         9.4381 
 167   0.0000       0.354488         9.6461 
 168   0.0000       0.359066         9.7707 
 169   0.0000       0.360529         9.8105 
 170   0.0000       0.366553         9.9744 
 171   0.0000       0.368990        10.0407 
 172   0.0000       0.372950        10.1485 
 173   0.0000       0.375542        10.2190 
 174   0.0000       0.380985        10.3671 
 175   0.0000       0.382651        10.4125 
 176   0.0000       0.386658        10.5215 
 177   0.0000       0.388474        10.5709 
 178   0.0000       0.392722        10.6865 
 179   0.0000       0.394910        10.7460 
 180   0.0000       0.399208        10.8630 
 181   0.0000       0.402514        10.9530 
 182   0.0000       0.403507        10.9800 
 183   0.0000       0.407114        11.0781 
 184   0.0000       0.410524        11.1709 
 185   0.0000       0.412619        11.2279 
 186   0.0000       0.415225        11.2989 
 187   0.0000       0.416614        11.3367 
 188   0.0000       0.420903        11.4534 
 189   0.0000       0.421489        11.4693 
 190   0.0000       0.424932        11.5630 
 191   0.0000       0.429018        11.6742 
 192   0.0000       0.434212        11.8155 
 193   0.0000       0.435007        11.8371 
 194   0.0000       0.437306        11.8997 
 195   0.0000       0.442953        12.0534 
 196   0.0000       0.444556        12.0970 
 197   0.0000       0.447142        12.1674 
 198   0.0000       0.448228        12.1969 
 199   0.0000       0.451229        12.2786 
 200   0.0000       0.457052        12.4370 
 201   0.0000       0.458550        12.4778 
 202   0.0000       0.461753        12.5649 
 203   0.0000       0.463191        12.6041 
 204   0.0000       0.468471        12.7477 
 205   0.0000       0.469962        12.7883 
 206   0.0000       0.476032        12.9535 
 207   0.0000       0.477356        12.9895 
 208   0.0000       0.480059        13.0631 
 209   0.0000       0.484263        13.1775 
 210   0.0000       0.485870        13.2212 
 211   0.0000       0.489035        13.3073 
 212   0.0000       0.491600        13.3771 
 213   0.0000       0.494264        13.4496 
 214   0.0000       0.502246        13.6668 
 215   0.0000       0.509710        13.8699 
 216   0.0000       0.510276        13.8853 
 217   0.0000       0.516721        14.0607 
 218   0.0000       0.517591        14.0844 
 219   0.0000       0.522337        14.2135 
 220   0.0000       0.524969        14.2851 
 221   0.0000       0.527871        14.3641 
 222   0.0000       0.531890        14.4735 
 223   0.0000       0.542502        14.7622 
 224   0.0000       0.543762        14.7965 
 225   0.0000       0.551095        14.9961 
 226   0.0000       0.553396        15.0587 
 227   0.0000       0.554476        15.0881 
 228   0.0000       0.560467        15.2511 
 229   0.0000       0.564611        15.3638 
 230   0.0000       0.567069        15.4307 
 231   0.0000       0.570814        15.5326 
 232   0.0000       0.575467        15.6593 
 233   0.0000       0.582022        15.8376 
 234   0.0000       0.585656        15.9365 
 235   0.0000       0.588047        16.0016 
 236   0.0000       0.592507        16.1229 
 237   0.0000       0.592859        16.1325 
 238   0.0000       0.598873        16.2962 
 239   0.0000       0.608806        16.5664 
 240   0.0000       0.611368        16.6362 
 241   0.0000       0.615986        16.7618 
 242   0.0000       0.619118        16.8471 
 243   0.0000       0.624374        16.9901 
 244   0.0000       0.627829        17.0841 
 245   0.0000       0.629195        17.1213 
 246   0.0000       0.638828        17.3834 
 247   0.0000       0.642707        17.4889 
 248   0.0000       0.645388        17.5619 
 249   0.0000       0.654363        17.8061 
 250   0.0000       0.658210        17.9108 
 251   0.0000       0.664012        18.0687 
 252   0.0000       0.671948        18.2846 
 253   0.0000       0.672411        18.2972 
 254   0.0000       0.678635        18.4666 
 255   0.0000       0.689639        18.7660 
 256   0.0000       0.695453        18.9242 
 257   0.0000       0.698040        18.9946 
 258   0.0000       0.698904        19.0181 
 259   0.0000       0.702415        19.1137 
 260   0.0000       0.717059        19.5122 
 261   0.0000       0.719888        19.5891 
 262   0.0000       0.722049        19.6479 
 263   0.0000       0.727852        19.8059 
 264   0.0000       0.731636        19.9088 
 265   0.0000       0.735551        20.0154 
 266   0.0000       0.738410        20.0932 
 267   0.0000       0.743548        20.2330 
 268   0.0000       0.756646        20.5894 
 269   0.0000       0.756753        20.5923 
 270   0.0000       0.762077        20.7372 
 271   0.0000       0.766302        20.8521 
 272   0.0000       0.772872        21.0309 
 273   0.0000       0.773554        21.0495 
 274   0.0000       0.779725        21.2174 
 275   0.0000       0.788002        21.4426 
 276   0.0000       0.789148        21.4738 
 277   0.0000       0.795184        21.6381 
 278   0.0000       0.796514        21.6742 
 279   0.0000       0.801632        21.8135 
 280   0.0000       0.804558        21.8931 
 281   0.0000       0.809941        22.0396 
 282   0.0000       0.812494        22.1091 
 283   0.0000       0.814946        22.1758 
 284   0.0000       0.821785        22.3619 
 285   0.0000       0.823193        22.4002 
 286   0.0000       0.825571        22.4649 
 287   0.0000       0.830446        22.5976 
 288   0.0000       0.832623        22.6568 
 289   0.0000       0.842135        22.9157 
 290   0.0000       0.847950        23.0739 
 291   0.0000       0.852192        23.1893 
 292   0.0000       0.852460        23.1966 
 293   0.0000       0.856189        23.2981 
 294   0.0000       0.857914        23.3450 
 295   0.0000       0.859709        23.3939 
 296   0.0000       0.862710        23.4755 
 297   0.0000       0.868029        23.6203 
 298   0.0000       0.873439        23.7675 
 299   0.0000       0.875804        23.8318 
 300   0.0000       0.878067        23.8934 
 301   0.0000       0.880438        23.9579 
 302   0.0000       0.883411        24.0388 
 303   0.0000       0.890453        24.2305 
 304   0.0000       0.893778        24.3209 
 305   0.0000       0.896483        24.3945 
 306   0.0000       0.900785        24.5116 
 307   0.0000       0.904682        24.6176 
 308   0.0000       0.909909        24.7599 
 309   0.0000       0.913207        24.8496 
 310   0.0000       0.917086        24.9552 
 311   0.0000       0.923940        25.1417 
 312   0.0000       0.927568        25.2404 
 313   0.0000       0.931471        25.3466 
 314   0.0000       0.934923        25.4406 
 315   0.0000       0.937536        25.5117 
 316   0.0000       0.941054        25.6074 
 317   0.0000       0.944415        25.6988 
 318   0.0000       0.953088        25.9348 
 319   0.0000       0.955949        26.0127 
 320   0.0000       0.958314        26.0771 
 321   0.0000       0.960604        26.1394 
 322   0.0000       0.963654        26.2223 
 323   0.0000       0.971957        26.4483 
 324   0.0000       0.977438        26.5974 
 325   0.0000       0.979306        26.6483 
 326   0.0000       0.981672        26.7127 
 327   0.0000       0.983631        26.7660 
 328   0.0000       0.984886        26.8001 
 329   0.0000       0.995056        27.0768 
 330   0.0000       0.997538        27.1444 
 331   0.0000       1.000160        27.2157 
 332   0.0000       1.005908        27.3722 
 333   0.0000       1.010300        27.4917 
 334   0.0000       1.011107        27.5136 
 335   0.0000       1.014323        27.6011 
 336   0.0000       1.022031        27.8109 
 337   0.0000       1.023489        27.8506 
 338   0.0000       1.024730        27.8843 
 339   0.0000       1.031694        28.0738 
 340   0.0000       1.033506        28.1231 
 341   0.0000       1.035651        28.1815 
 342   0.0000       1.042185        28.3593 
 343   0.0000       1.046727        28.4829 
 344   0.0000       1.048748        28.5379 
 345   0.0000       1.051962        28.6254 
 346   0.0000       1.054078        28.6829 
 347   0.0000       1.059739        28.8370 
 348   0.0000       1.060601        28.8604 
 349   0.0000       1.068942        29.0874 
 350   0.0000       1.070039        29.1172 
 351   0.0000       1.072309        29.1790 
 352   0.0000       1.076803        29.3013 
 353   0.0000       1.078319        29.3425 
 354   0.0000       1.085206        29.5300 
 355   0.0000       1.088818        29.6282 
 356   0.0000       1.091632        29.7048 
 357   0.0000       1.096891        29.8479 
 358   0.0000       1.107033        30.1239 
 359   0.0000       1.109427        30.1890 
 360   0.0000       1.120446        30.4889 
 361   0.0000       1.123326        30.5673 
 362   0.0000       1.125832        30.6355 
 363   0.0000       1.129889        30.7458 
 364   0.0000       1.133317        30.8391 
 365   0.0000       1.139347        31.0032 
 366   0.0000       1.142085        31.0777 
 367   0.0000       1.147592        31.2276 
 368   0.0000       1.151806        31.3422 
 369   0.0000       1.153258        31.3817 
 370   0.0000       1.160115        31.5683 
 371   0.0000       1.165651        31.7190 
 372   0.0000       1.171780        31.8858 
 373   0.0000       1.172704        31.9109 
 374   0.0000       1.179966        32.1085 
 375   0.0000       1.183653        32.2088 
 376   0.0000       1.189333        32.3634 
 377   0.0000       1.193923        32.4883 
 378   0.0000       1.199597        32.6427 
 379   0.0000       1.202850        32.7312 
 380   0.0000       1.208832        32.8940 
 381   0.0000       1.209616        32.9153 
 382   0.0000       1.213685        33.0260 
 383   0.0000       1.218240        33.1500 
 384   0.0000       1.220747        33.2182 
 385   0.0000       1.228165        33.4201 
 386   0.0000       1.232561        33.5397 
 387   0.0000       1.233760        33.5723 
 388   0.0000       1.248587        33.9758 
 389   0.0000       1.251914        34.0663 
 390   0.0000       1.258291        34.2398 
 391   0.0000       1.260720        34.3059 
 392   0.0000       1.265880        34.4463 
 393   0.0000       1.270567        34.5739 
 394   0.0000       1.273118        34.6433 
 395   0.0000       1.279769        34.8243 
 396   0.0000       1.281916        34.8827 
 397   0.0000       1.289685        35.0941 
 398   0.0000       1.294971        35.2380 
 399   0.0000       1.304418        35.4950 
 400   0.0000       1.309498        35.6333 
 401   0.0000       1.314445        35.7679 
 402   0.0000       1.320566        35.9344 
 403   0.0000       1.325347        36.0645 
 404   0.0000       1.329573        36.1795 
 405   0.0000       1.332423        36.2571 
 406   0.0000       1.340884        36.4873 
 407   0.0000       1.345495        36.6128 
 408   0.0000       1.354910        36.8690 
 409   0.0000       1.358020        36.9536 
 410   0.0000       1.361861        37.0581 
 411   0.0000       1.376533        37.4574 
 412   0.0000       1.379169        37.5291 
 413   0.0000       1.388764        37.7902 
 414   0.0000       1.394473        37.9455 
 415   0.0000       1.400014        38.0963 
 416   0.0000       1.407497        38.2999 
 417   0.0000       1.416065        38.5331 
 418   0.0000       1.419215        38.6188 
 419   0.0000       1.425702        38.7953 
 420   0.0000       1.432869        38.9904 
 421   0.0000       1.435350        39.0579 
 422   0.0000       1.438091        39.1325 
 423   0.0000       1.446100        39.3504 
 424   0.0000       1.454001        39.5654 
 425   0.0000       1.456334        39.6289 
 426   0.0000       1.460822        39.7510 
 427   0.0000       1.466516        39.9059 
 428   0.0000       1.478200        40.2239 
 429   0.0000       1.484279        40.3893 
 430   0.0000       1.488014        40.4909 
 431   0.0000       1.495666        40.6992 
 432   0.0000       1.505296        40.9612 
 433   0.0000       1.508114        41.0379 
 434   0.0000       1.514242        41.2046 
 435   0.0000       1.518129        41.3104 
 436   0.0000       1.521750        41.4089 
 437   0.0000       1.526677        41.5430 
 438   0.0000       1.530878        41.6573 
 439   0.0000       1.539342        41.8876 
 440   0.0000       1.544649        42.0320 
 441   0.0000       1.547462        42.1086 
 442   0.0000       1.549454        42.1628 
 443   0.0000       1.552646        42.2496 
 444   0.0000       1.566493        42.6264 
 445   0.0000       1.570565        42.7373 
 446   0.0000       1.574292        42.8387 
 447   0.0000       1.580867        43.0176 
 448   0.0000       1.589546        43.2537 
 449   0.0000       1.594764        43.3957 
 450   0.0000       1.598782        43.5051 
 451   0.0000       1.600589        43.5542 
 452   0.0000       1.614329        43.9281 
 453   0.0000       1.616092        43.9761 
 454   0.0000       1.618733        44.0480 
 455   0.0000       1.629857        44.3507 
 456   0.0000       1.631829        44.4043 
 457   0.0000       1.638512        44.5862 
 458   0.0000       1.648738        44.8644 
 459   0.0000       1.650804        44.9206 
 460   0.0000       1.656383        45.0725 
 461   0.0000       1.656701        45.0811 
 462   0.0000       1.663778        45.2737 
 463   0.0000       1.671228        45.4764 
 464   0.0000       1.682491        45.7829 
 465   0.0000       1.687546        45.9205 
 466   0.0000       1.694520        46.1102 
 467   0.0000       1.699512        46.2461 
 468   0.0000       1.707710        46.4692 
 469   0.0000       1.711909        46.5834 
 470   0.0000       1.717073        46.7239 
 471   0.0000       1.728614        47.0380 
 472   0.0000       1.736232        47.2453 
 473   0.0000       1.741641        47.3925 
 474   0.0000       1.752252        47.6812 
 475   0.0000       1.755268        47.7633 
 476   0.0000       1.763269        47.9810 
 477   0.0000       1.765739        48.0482 
 478   0.0000       1.772371        48.2287 
 479   0.0000       1.777345        48.3640 
 480   0.0000       1.783545        48.5327 
 481   0.0000       1.791138        48.7393 
 482   0.0000       1.794580        48.8330 
 483   0.0000       1.799661        48.9713 
 484   0.0000       1.807084        49.1732 
 485   0.0000       1.813923        49.3593 
 486   0.0000       1.819595        49.5137 
 487   0.0000       1.837005        49.9875 
 488   0.0000       1.838448        50.0267 
 489   0.0000       1.847320        50.2681 
 490   0.0000       1.852007        50.3957 
 491   0.0000       1.861704        50.6595 
 492   0.0000       1.865065        50.7510 
 493   0.0000       1.870127        50.8888 
 494   0.0000       1.877338        51.0850 
 495   0.0000       1.885936        51.3189 
 496   0.0000       1.891412        51.4679 
 497   0.0000       1.896644        51.6103 
 498   0.0000       1.902450        51.7683 
 499   0.0000       1.915369        52.1198 
 500   0.0000       1.919066        52.2204 
 501   0.0000       1.926329        52.4181 
 502   0.0000       1.928003        52.4636 
 503   0.0000       1.938216        52.7415 
 504   0.0000       1.947332        52.9896 
 505   0.0000       1.953452        53.1561 
 506   0.0000       1.960116        53.3375 
 507   0.0000       1.970259        53.6135 
 508   0.0000       1.975299        53.7506 
 509   0.0000       1.976548        53.7846 
 510   0.0000       1.980722        53.8982 
 511   0.0000       1.990873        54.1744 
 512   0.0000       1.998547        54.3832 
 513   0.0000       2.006492        54.5994 
 514   0.0000       2.013304        54.7848 
 515   0.0000       2.018166        54.9171 
 516   0.0000       2.027975        55.1840 
 517   0.0000       2.035999        55.4024 
 518   0.0000       2.041807        55.5604 
 519   0.0000       2.045026        55.6480 
 520   0.0000       2.050222        55.7894 
 521   0.0000       2.053653        55.8827 
 522   0.0000       2.056577        55.9623 
 523   0.0000       2.059580        56.0440 
 524   0.0000       2.068776        56.2943 
 525   0.0000       2.083437        56.6932 
 526   0.0000       2.086828        56.7855 
 527   0.0000       2.098312        57.0980 
 528   0.0000       2.101143        57.1750 
 529   0.0000       2.113882        57.5217 
 530   0.0000       2.116825        57.6017 
 531   0.0000       2.119770        57.6819 
 532   0.0000       2.130100        57.9630 
 533   0.0000       2.138221        58.1840 
 534   0.0000       2.143410        58.3251 
 535   0.0000       2.149209        58.4829 
 536   0.0000       2.154236        58.6198 
 537   0.0000       2.157146        58.6989 
 538   0.0000       2.163249        58.8650 
 539   0.0000       2.173834        59.1530 
 540   0.0000       2.178547        59.2813 
 541   0.0000       2.180718        59.3404 
 542   0.0000       2.187171        59.5160 
 543   0.0000       2.196254        59.7631 
 544   0.0000       2.202288        59.9273 
 545   0.0000       2.210947        60.1629 
 546   0.0000       2.216331        60.3094 
 547   0.0000       2.228220        60.6330 
 548   0.0000       2.230805        60.7033 
 549   0.0000       2.233546        60.7779 
 550   0.0000       2.245490        61.1029 
 551   0.0000       2.245961        61.1157 
 552   0.0000       2.250670        61.2438 
 553   0.0000       2.252888        61.3042 
 554   0.0000       2.265522        61.6480 
 555   0.0000       2.272374        61.8344 
 556   0.0000       2.279531        62.0292 
 557   0.0000       2.285567        62.1934 
 558   0.0000       2.294796        62.4446 
 559   0.0000       2.298800        62.5535 
 560   0.0000       2.302789        62.6621 
 561   0.0000       2.306503        62.7631 
 562   0.0000       2.312830        62.9353 
 563   0.0000       2.325201        63.2719 
 564   0.0000       2.328478        63.3611 
 565   0.0000       2.332590        63.4730 
 566   0.0000       2.343371        63.7664 
 567   0.0000       2.352433        64.0130 
 568   0.0000       2.356170        64.1146 
 569   0.0000       2.362224        64.2794 
 570   0.0000       2.371595        64.5344 
 571   0.0000       2.383478        64.8577 
 572   0.0000       2.391523        65.0767 
 573   0.0000       2.398605        65.2694 
 574   0.0000       2.407733        65.5177 
 575   0.0000       2.411544        65.6214 
 576   0.0000       2.422422        65.9175 
 577   0.0000       2.433618        66.2221 
 578   0.0000       2.441508        66.4368 
 579   0.0000       2.453116        66.7527 
 580   0.0000       2.464654        67.0667 
 581   0.0000       2.466845        67.1263 
 582   0.0000       2.474734        67.3409 
 583   0.0000       2.484340        67.6023 
 584   0.0000       2.487924        67.6999 
 585   0.0000       2.503856        68.1334 
 586   0.0000       2.505515        68.1785 
 587   0.0000       2.520644        68.5902 
 588   0.0000       2.536539        69.0227 
 589   0.0000       2.539025        69.0904 
 590   0.0000       2.552391        69.4541 
 591   0.0000       2.565403        69.8082 
 592   0.0000       2.572204        69.9932 
 593   0.0000       2.586782        70.3899 
 594   0.0000       2.590277        70.4850 
 595   0.0000       2.599790        70.7439 
 596   0.0000       2.608145        70.9712 
 597   0.0000       2.618236        71.2458 
 598   0.0000       2.626833        71.4797 
 599   0.0000       2.635851        71.7252 
 600   0.0000       2.642164        71.8969 
 601   0.0000       2.660727        72.4021 
 602   0.0000       2.674867        72.7868 
 603   0.0000       2.676906        72.8423 
 604   0.0000       2.680909        72.9512 
 605   0.0000       2.692553        73.2681 
 606   0.0000       2.704705        73.5988 
 607   0.0000       2.717535        73.9479 
 608   0.0000       2.719384        73.9982 
 609   0.0000       2.723586        74.1125 
 610   0.0000       2.741989        74.6133 
 611   0.0000       2.756311        75.0030 
 612   0.0000       2.760593        75.1195 
 613   0.0000       2.764516        75.2263 
 614   0.0000       2.781768        75.6958 
 615   0.0000       2.788146        75.8693 
 616   0.0000       2.799388        76.1752 
 617   0.0000       2.816892        76.6515 
 618   0.0000       2.827266        76.9338 
 619   0.0000       2.835922        77.1694 
 620   0.0000       2.849084        77.5275 
 621   0.0000       2.858158        77.7744 
 622   0.0000       2.874281        78.2132 
 623   0.0000       2.881763        78.4168 
 624   0.0000       2.892283        78.7030 
 625   0.0000       2.904650        79.0395 
 626   0.0000       2.927387        79.6583 
 627   0.0000       2.954172        80.3871 
 628   0.0000       2.961671        80.5912 
 629   0.0000       2.976030        80.9819 
 630   0.0000       2.979445        81.0748 
 631   0.0000       2.996677        81.5437 
 632   0.0000       3.005274        81.7777 
 633   0.0000       3.012749        81.9811 
 634   0.0000       3.019930        82.1765 
 635   0.0000       3.038202        82.6737 
 636   0.0000       3.068137        83.4883 
 637   0.0000       3.072485        83.6066 
 638   0.0000       3.079063        83.7856 
 639   0.0000       3.102211        84.4155 
 640   0.0000       3.118914        84.8700 
 641   0.0000       3.123063        84.9829 
 642   0.0000       3.130021        85.1722 
 643   0.0000       3.142208        85.5038 
 644   0.0000       3.168956        86.2317 
 645   0.0000       3.177837        86.4733 
 646   0.0000       3.184712        86.6604 
 647   0.0000       3.200916        87.1014 
 648   0.0000       3.213891        87.4544 
 649   0.0000       3.217257        87.5460 
 650   0.0000       3.226194        87.7892 
 651   0.0000       3.240293        88.1729 
 652   0.0000       3.244964        88.3000 
 653   0.0000       3.253883        88.5427 
 654   0.0000       3.257103        88.6303 
 655   0.0000       3.258943        88.6803 
 656   0.0000       3.275396        89.1281 
 657   0.0000       3.283931        89.3603 
 658   0.0000       3.295380        89.6718 
 659   0.0000       3.297368        89.7259 
 660   0.0000       3.316647        90.2506 
 661   0.0000       3.326368        90.5151 
 662   0.0000       3.338213        90.8374 
 663   0.0000       3.342933        90.9658 
 664   0.0000       3.353905        91.2644 
 665   0.0000       3.368526        91.6622 
 666   0.0000       3.372404        91.7678 
 667   0.0000       3.380965        92.0007 
 668   0.0000       3.391132        92.2774 
 669   0.0000       3.399462        92.5041 
 670   0.0000       3.407388        92.7198 
 671   0.0000       3.421984        93.1169 
 672   0.0000       3.437486        93.5388 
 673   0.0000       3.444824        93.7384 
 674   0.0000       3.456653        94.0603 
 675   0.0000       3.465067        94.2893 
 676   0.0000       3.472942        94.5036 
 677   0.0000       3.479000        94.6684 
 678   0.0000       3.486408        94.8700 
 679   0.0000       3.492209        95.0278 
 680   0.0000       3.522834        95.8612 
 681   0.0000       3.530605        96.0727 
 682   0.0000       3.538678        96.2923 
 683   0.0000       3.540650        96.3460 
 684   0.0000       3.548451        96.5583 
 685   0.0000       3.564918        97.0064 
 686   0.0000       3.577350        97.3446 
 687   0.0000       3.578666        97.3805 
 688   0.0000       3.585934        97.5782 
 689   0.0000       3.596568        97.8676 
 690   0.0000       3.604278        98.0774 
 691   0.0000       3.608658        98.1966 
 692   0.0000       3.617593        98.4397 
 693   0.0000       3.623988        98.6137 
 694   0.0000       3.647316        99.2485 
 695   0.0000       3.649437        99.3062 
 696   0.0000       3.661398        99.6317 
 697   0.0000       3.668470        99.8241 
 698   0.0000       3.672234        99.9266 
 699   0.0000       3.680071       100.1398 
 700   0.0000       3.685966       100.3002 
 701   0.0000       3.692222       100.4705 
 702   0.0000       3.703678       100.7822 
 703   0.0000       3.708553       100.9149 
 704   0.0000       3.723203       101.3135 
 705   0.0000       3.729996       101.4983 
 706   0.0000       3.750149       102.0468 
 707   0.0000       3.756010       102.2062 
 708   0.0000       3.760681       102.3333 
 709   0.0000       3.770784       102.6082 
 710   0.0000       3.772899       102.6658 
 711   0.0000       3.787499       103.0631 
 712   0.0000       3.791143       103.1623 
 713   0.0000       3.797917       103.3466 
 714   0.0000       3.803078       103.4870 
 715   0.0000       3.808863       103.6444 
 716   0.0000       3.813715       103.7765 
 717   0.0000       3.819081       103.9225 
 718   0.0000       3.827034       104.1389 
 719   0.0000       3.835077       104.3577 
 720   0.0000       3.838913       104.4621 
 721   0.0000       3.848338       104.7186 
 722   0.0000       3.854648       104.8903 
 723   0.0000       3.876446       105.4834 
 724   0.0000       3.877163       105.5030 
 725   0.0000       3.889336       105.8342 
 726   0.0000       3.891821       105.9018 
 727   0.0000       3.900061       106.1261 
 728   0.0000       3.909136       106.3730 
 729   0.0000       3.918895       106.6386 
 730   0.0000       3.935945       107.1025 
 731   0.0000       3.939767       107.2065 
 732   0.0000       3.942534       107.2818 
 733   0.0000       3.959297       107.7380 
 734   0.0000       3.989203       108.5517 
 735   0.0000       3.994508       108.6961 
 736   0.0000       3.997942       108.7895 
 737   0.0000       4.004909       108.9791 
 738   0.0000       4.011461       109.1574 
 739   0.0000       4.027160       109.5846 
 740   0.0000       4.030016       109.6623 
 741   0.0000       4.039256       109.9137 
 742   0.0000       4.055589       110.3582 
 743   0.0000       4.061013       110.5058 
 744   0.0000       4.068294       110.7039 
 745   0.0000       4.079689       111.0140 
 746   0.0000       4.089161       111.2717 
 747   0.0000       4.095113       111.4337 
 748   0.0000       4.099246       111.5461 
 749   0.0000       4.112156       111.8975 
 750   0.0000       4.126850       112.2973 
 751   0.0000       4.137220       112.5795 
 752   0.0000       4.138301       112.6089 
 753   0.0000       4.141262       112.6895 
 754   0.0000       4.153933       113.0343 
 755   0.0000       4.161222       113.2326 
 756   0.0000       4.168267       113.4243 
 757   0.0000       4.195202       114.1572 
 758   0.0000       4.200861       114.3112 
 759   0.0000       4.211340       114.5964 
 760   0.0000       4.219269       114.8122 
 761   0.0000       4.227229       115.0287 
 762   0.0000       4.230160       115.1085 
 763   0.0000       4.242965       115.4569 
 764   0.0000       4.252386       115.7133 
 765   0.0000       4.263987       116.0290 
 766   0.0000       4.269872       116.1891 
 767   0.0000       4.274055       116.3030 
 768   0.0000       4.278557       116.4254 
 769   0.0000       4.282315       116.5277 
 770   0.0000       4.300255       117.0159 
 771   0.0000       4.304813       117.1399 
 772   0.0000       4.314317       117.3985 
 773   0.0000       4.318359       117.5085 
 774   0.0000       4.330645       117.8428 
 775   0.0000       4.335110       117.9643 
 776   0.0000       4.342876       118.1757 
 777   0.0000       4.345074       118.2355 
[...]
      dx2y2   :     0.068441
      dxy     :     0.059042
      f0      :     0.051722  f :     0.269573
      f+1     :     0.062470
      f-1     :     0.026737
      f+2     :     0.042660
      f-2     :     0.035382
      f+3     :     0.025145
      f-3     :     0.025457
 11 C s       :     2.486285  s :     2.486285
      pz      :     0.851353  p :     2.264053
      px      :     0.821709
      py      :     0.590992
      dz2     :     0.240194  d :     0.694540
      dxz     :     0.176082
      dyz     :     0.144672
      dx2y2   :     0.084808
      dxy     :     0.048784
      f0      :     0.104676  f :     0.337780
      f+1     :     0.062654
      f-1     :     0.030686
      f+2     :     0.054544
      f-2     :     0.060915
      f+3     :     0.013652
      f-3     :     0.010652
 12 C s       :     2.481899  s :     2.481899
      pz      :     0.846118  p :     2.285006
      px      :     0.813366
      py      :     0.625522
      dz2     :     0.159479  d :     0.671985
      dxz     :     0.238902
      dyz     :     0.074009
      dx2y2   :     0.103069
      dxy     :     0.096526
      f0      :     0.082070  f :     0.342728
      f+1     :     0.063276
      f-1     :     0.036548
      f+2     :     0.059672
      f-2     :     0.031879
      f+3     :     0.033696
      f-3     :     0.035588
 13 C s       :     2.454036  s :     2.454036
      pz      :     0.756848  p :     2.187383
      px      :     0.834197
      py      :     0.596337
      dz2     :     0.294548  d :     1.089179
      dxz     :     0.304685
      dyz     :     0.203269
      dx2y2   :     0.145552
      dxy     :     0.141125
      f0      :     0.192836  f :     0.654574
      f+1     :     0.109780
      f-1     :     0.094802
      f+2     :     0.101009
      f-2     :     0.079568
      f+3     :     0.038313
      f-3     :     0.038266
 14 C s       :     2.474525  s :     2.474525
      pz      :     0.840980  p :     2.318084
      px      :     0.822311
      py      :     0.654794
      dz2     :     0.226568  d :     0.700405
      dxz     :     0.196986
      dyz     :     0.139956
      dx2y2   :     0.085081
      dxy     :     0.051814
      f0      :     0.097318  f :     0.343146
      f+1     :     0.069961
      f-1     :     0.038054
      f+2     :     0.054276
      f-2     :     0.057819
      f+3     :     0.014338
      f-3     :     0.011379
 15 O s       :     2.964973  s :     2.964973
      pz      :     1.259258  p :     3.853067
      px      :     1.214639
      py      :     1.379170
      dz2     :     0.110320  d :     0.448821
      dxz     :     0.131980
      dyz     :     0.061182
      dx2y2   :     0.067765
      dxy     :     0.077574
      f0      :     0.028600  f :     0.124260
      f+1     :     0.025768
      f-1     :     0.016376
      f+2     :     0.016511
      f-2     :     0.007894
      f+3     :     0.012829
      f-3     :     0.016282
 16 C s       :     2.431615  s :     2.431615
      pz      :     0.762555  p :     2.157305
      px      :     0.613426
      py      :     0.781324
      dz2     :     0.209504  d :     0.937121
      dxz     :     0.197621
      dyz     :     0.179601
      dx2y2   :     0.163838
      dxy     :     0.186557
      f0      :     0.068805  f :     0.469142
      f+1     :     0.094571
      f-1     :     0.067117
      f+2     :     0.060787
      f-2     :     0.033155
      f+3     :     0.070442
      f-3     :     0.074266
 17 C s       :     2.454431  s :     2.454431
      pz      :     0.723065  p :     2.267283
      px      :     0.769776
      py      :     0.774442
      dz2     :     0.132332  d :     0.502852
      dxz     :     0.082785
      dyz     :     0.153058
      dx2y2   :     0.076762
      dxy     :     0.057914
      f0      :     0.038112  f :     0.190856
      f+1     :     0.042094
      f-1     :     0.059001
      f+2     :     0.018388
      f-2     :     0.017212
      f+3     :     0.009983
      f-3     :     0.006066
 18 H s       :     0.663918  s :     0.663918
      pz      :     0.074263  p :     0.291752
      px      :     0.136733
      py      :     0.080756
      dz2     :     0.017868  d :     0.211418
      dxz     :     0.076734
      dyz     :     0.008863
      dx2y2   :     0.052188
      dxy     :     0.055764
 19 H s       :     0.660346  s :     0.660346
      pz      :     0.122080  p :     0.297727
      px      :     0.091906
      py      :     0.083741
      dz2     :     0.071360  d :     0.217897
      dxz     :     0.052696
      dyz     :     0.048028
      dx2y2   :     0.026441
      dxy     :     0.019373
 20 H s       :     0.644601  s :     0.644601
      pz      :     0.094486  p :     0.327089
      px      :     0.139218
      py      :     0.093384
      dz2     :     0.028645  d :     0.236419
      dxz     :     0.079550
      dyz     :     0.011510
      dx2y2   :     0.054319
      dxy     :     0.062396
 21 H s       :     0.632506  s :     0.632506
      pz      :     0.095364  p :     0.290791
      px      :     0.079812
      py      :     0.115615
      dz2     :     0.055052  d :     0.225613
      dxz     :     0.026718
      dyz     :     0.038591
      dx2y2   :     0.071165
      dxy     :     0.034087
 22 H s       :     0.632228  s :     0.632228
      pz      :     0.097863  p :     0.290833
      px      :     0.061774
      py      :     0.131196
      dz2     :     0.059179  d :     0.225617
      dxz     :     0.014536
      dyz     :     0.049312
      dx2y2   :     0.051189
      dxy     :     0.051402
 23 H s       :     0.636705  s :     0.636705
      pz      :     0.083441  p :     0.307520
      px      :     0.089822
      py      :     0.134256
      dz2     :     0.053629  d :     0.223142
      dxz     :     0.012088
      dyz     :     0.045335
      dx2y2   :     0.049072
      dxy     :     0.063018
 24 H s       :     0.637745  s :     0.637745
      pz      :     0.075722  p :     0.307000
      px      :     0.141771
      py      :     0.089507
      dz2     :     0.030687  d :     0.223568
      dxz     :     0.062291
      dyz     :     0.007744
      dx2y2   :     0.046458
      dxy     :     0.076388
 25 H s       :     0.636544  s :     0.636544
      pz      :     0.081244  p :     0.307491
      px      :     0.108407
      py      :     0.117840
      dz2     :     0.048725  d :     0.223172
      dxz     :     0.023109
      dyz     :     0.036124
      dx2y2   :     0.079280
      dxy     :     0.035934


                      *****************************
                      * MAYER POPULATION ANALYSIS *
                      *****************************

  NA   - Mulliken gross atomic population
  ZA   - Total nuclear charge
  QA   - Mulliken gross atomic charge
  VA   - Mayer's total valence
  BVA  - Mayer's bonded valence
  FA   - Mayer's free valence

  ATOM       NA         ZA         QA         VA         BVA        FA
  0 C      5.8934     6.0000     0.1066     3.5449     3.5449     0.0000
  1 S     13.8201    16.0000     2.1799     4.3976     4.3976    -0.0000
  2 O      8.9217     8.0000    -0.9217     1.5262     1.5262     0.0000
  3 O      8.9367     8.0000    -0.9367     1.5910     1.5910    -0.0000
  4 N      7.6000     7.0000    -0.6000     3.0112     3.0112     0.0000
  5 H      0.8560     1.0000     0.1440     1.0797     1.0797    -0.0000
  6 H      0.8311     1.0000     0.1689     1.0652     1.0652     0.0000
  7 N      7.7214     7.0000    -0.7214     1.9469     1.9469     0.0000
  8 C      5.7084     6.0000     0.2916     2.6137     2.6137     0.0000
  9 C      4.9924     6.0000     1.0076     1.3998     1.3998    -0.0000
 10 S     16.3529    16.0000    -0.3529     1.9520     1.9520    -0.0000
 11 C      6.8291     6.0000    -0.8291     3.1024     3.1024    -0.0000
 12 C      6.7056     6.0000    -0.7056     3.0015     3.0015    -0.0000
 13 C      4.9695     6.0000     1.0305     2.0580     2.0580    -0.0000
 14 C      6.6747     6.0000    -0.6747     2.5016     2.5016     0.0000
 15 O      8.6850     8.0000    -0.6850     1.4837     1.4837    -0.0000
 16 C      6.2447     6.0000    -0.2447     3.5283     3.5283     0.0000
 17 C      7.0939     6.0000    -1.0939     3.6952     3.6952    -0.0000
 18 H      0.5480     1.0000     0.4520     0.8401     0.8401    -0.0000
 19 H      0.4375     1.0000     0.5625     0.5276     0.5276    -0.0000
 20 H      0.6871     1.0000     0.3129     0.7658     0.7658    -0.0000
 21 H      0.6813     1.0000     0.3187     0.9425     0.9425     0.0000
 22 H      0.6876     1.0000     0.3124     0.9535     0.9535     0.0000
 23 H      0.7216     1.0000     0.2784     1.0529     1.0529    -0.0000
 24 H      0.6739     1.0000     0.3261     0.9671     0.9671    -0.0000
 25 H      0.7262     1.0000     0.2738     1.0613     1.0613    -0.0000

  Mayer bond orders larger than 0.100000
B(  0-C ,  1-S ) :   0.8459 B(  0-C ,  2-O ) :   0.1074 B(  0-C ,  7-N ) :   1.4866 
B(  0-C ,  8-C ) :   0.1459 B(  0-C ,  9-C ) :  -0.1938 B(  0-C , 10-S ) :   1.0910 
B(  1-S ,  2-O ) :   1.2523 B(  1-S ,  3-O ) :   1.2976 B(  1-S ,  4-N ) :   0.8282 
B(  3-O ,  4-N ) :   0.1265 B(  4-N ,  5-H ) :   0.9512 B(  4-N ,  6-H ) :   0.9452 
B(  7-N ,  8-C ) :   0.2269 B(  7-N ,  9-C ) :  -0.2968 B(  7-N , 10-S ) :   0.1920 
B(  7-N , 11-C ) :   0.1955 B(  8-C ,  9-C ) :   0.8067 B(  8-C , 10-S ) :   0.4890 
B(  8-C , 11-C ) :   0.8177 B(  9-C , 10-S ) :   0.3783 B(  9-C , 13-C ) :  -0.2330 
B(  9-C , 14-C ) :   0.7255 B( 10-S , 14-C ) :  -0.1410 B( 11-C , 12-C ) :   1.4872 
B( 11-C , 13-C ) :  -0.2133 B( 11-C , 18-H ) :   0.7678 B( 12-C , 13-C ) :   0.6336 
B( 12-C , 14-C ) :   0.1001 B( 12-C , 15-O ) :   0.1175 B( 12-C , 19-H ) :   0.5436 
B( 13-C , 14-C ) :   1.1274 B( 13-C , 15-O ) :   0.6292 B( 14-C , 15-O ) :  -0.3161 
B( 14-C , 20-H ) :   0.9114 B( 15-O , 16-C ) :   0.9923 B( 16-C , 17-C ) :   0.7305 
B( 16-C , 21-H ) :   0.9111 B( 16-C , 22-H ) :   0.9168 B( 17-C , 23-H ) :   0.9903 
B( 17-C , 24-H ) :   0.9281 B( 17-C , 25-H ) :   0.9979 

-------
TIMINGS
-------

Total SCF time: 0 days 0 hours 4 min 33 sec 

Total time                  ....     273.457 sec
Sum of individual times     ....     270.736 sec  ( 99.0%)

Fock matrix formation       ....     261.244 sec  ( 95.5%)
  Split-RI-J                ....      15.751 sec  (  6.0% of F)
  Chain of spheres X        ....     216.367 sec  ( 82.8% of F)
  XC integration            ....      28.062 sec  ( 10.7% of F)
    Basis function eval.    ....       4.379 sec  ( 15.6% of XC)
    Density eval.           ....      11.334 sec  ( 40.4% of XC)
    XC-Functional eval.     ....       0.261 sec  (  0.9% of XC)
    XC-Potential eval.      ....      10.242 sec  ( 36.5% of XC)
Diagonalization             ....       2.097 sec  (  0.8%)
Density matrix formation    ....       0.166 sec  (  0.1%)
Population analysis         ....       0.200 sec  (  0.1%)
Initial guess               ....       1.597 sec  (  0.6%)
Orbital Transformation      ....       0.000 sec  (  0.0%)
Orbital Orthonormalization  ....       0.000 sec  (  0.0%)
DIIS solution               ....       0.921 sec  (  0.3%)
SOSCF solution              ....       1.615 sec  (  0.6%)
Grid generation             ....       2.898 sec  (  1.1%)

Maximum memory used throughout the entire SCF-calculation: 227.0 MB


           ************************************************************
           *        Program running with 8 parallel MPI-processes     *
           *              working on a common directory               *
           ************************************************************

------------------------------------------------------------------------------
                                ORCA  MP2 
------------------------------------------------------------------------------

Freezing NCore=48 chemical core electrons

   <<< Use J-auxbasis for calculation of Separable RI-J derivative contributions (Dim=898) >>> 


-------------
RI-MP2 ENERGY
-------------
Dimension of the basis                    ...  974
Memory devoted to MP2                     ... 5000 MB   
Data format for buffers                   ... DOUBLE
Compression type for matrix containers    ... UNCOMPRESSED
Scaling for aa/bb pairs                   ...   2.500e-01
Scaling for ab pairs                      ...   5.300e-01
Overall scaling of the MP2 energy         ...   1.000e+00
Calculating two index integrals           ... done (    0.050 sec)
Cholesky decomposition of V**-1           ... done (    0.408 sec)

-----------------
RI-TRANSFORMATION (AUX index driven)
-----------------

Dimension of the orbital-basis         ... 974
Dimension of the aux-basis             ... 2238
Transformation of internal/external MOs...   24-  66 to   67- 973
Number Format for Storage              ... Double (8 Byte)
Integral mode                          ... Direct

First Phase: integral generation and transformation of MO indices
  Aux angular momentum 0               ... done (    0.615 sec)
  Aux angular momentum 1               ... done (    1.144 sec)
  Aux angular momentum 2               ... done (    1.629 sec)
  Aux angular momentum 3               ... done (    1.468 sec)
  Aux angular momentum 4               ... done (    0.863 sec)
Closing buffer VIA ( 0.65 GB; CompressionRatio= 1.00)
  Phase 1 completed in     5.928 sec
Second Phase: sorting and transformation of aux index

IA-Transformation
Memory available                       ... 4895 MB 
Max. # MO pairs treated in a batch     ... 6    
# of internal orbitals                 ... 43
# batches for internal orbitals        ... 1
Closing buffer IAV ( 0.65 GB; CompressionRatio= 1.00)
(ia|v) transformation done in     1.183 sec

  Phase 2 completed in     1.344 sec
RI-Integral transformation completed in     7.286 sec
Opening buffers                              ... done

Starting loop over batches of integrals:

Operator 0  - window                       ... ( 24- 66)x( 67-973)
Operator 0  - Memory available             ...  5000 MB
Operator 0  - Memory needed per MO         ...  15.5 MB
Operator 0  - Number of orbitals per batch ... 6
Operator 0  - Number of batches            ... 1

OPERATOR  0   PASS   0:  MOs    24 ...   29 +   30 ...   35 +   36 ...   41 +   42 ...   47
                            +   48 ...   53 +   54 ...   59 +   60 ...   65 +   66 ...   66
  Reading integrals       ... ok
  Internal MO  26
  Internal MO  29
Time spent in pair loops =     1.503 sec
Deleting buffer (Ka|jb)[aa] ...done

-----------------------------------------------
 RI-MP2 CORRELATION ENERGY:     -1.531809111 Eh
-----------------------------------------------


-------
TIMINGS
-------

Total time                :   24.125 sec
Integral trafo            :    7.302 sec ( 30.3%)
I/O of integrals          :    0.056 sec (  0.2%)
K(i,j) Operators          :    1.199 sec (  5.0%)
T(i,j) pair energies      :    0.157 sec (  0.7%)
V-calculation             :    0.050 sec (  0.2%)
V**(-1/2)                 :    0.408 sec (  1.7%)
Gamma(ia|P)               :    0.000 sec (  0.0%)
Gamma-Trafo               :    0.000 sec (  0.0%)
D(virtual)                :    0.000 sec (  0.0%)
D(internal)               :    0.000 sec (  0.0%)
W(virtual)                :    0.000 sec (  0.0%)
W(internal)               :    0.000 sec (  0.0%)
L(virtual)                :    0.000 sec (  0.0%)
L(internal)               :    0.000 sec (  0.0%)
G(D)                      :    0.000 sec (  0.0%)
G(Z)                      :    0.000 sec (  0.0%)
Z-Vector Solution         :    0.000 sec (  0.0%)
3-Index Derivative        :    0.000 sec (  0.0%)
2-Index Derivative        :    0.000 sec (  0.0%)
Separable Gradient (RIJ)  :    0.000 sec (  0.0%)
Separable Gradient (COSX) :    0.000 sec (  0.0%)


---------------------------------------
MP2 TOTAL ENERGY:    -1479.021072891 Eh
---------------------------------------

Maximum memory used throughout the entire MP2-calculation: 272.3 MB


-------------------------------------------------------------------------------
                          DFT DISPERSION CORRECTION                            
                                                                               
                              DFTD3 V3.1  Rev 1                                
                          USING Becke-Johnson damping                          
-------------------------------------------------------------------------------
The DSD-PBEP86 functional is recognized
Active option DFTDOPT                   ...         4   

molecular C6(AA) [au] = 10271.474578 


            DFT-D V3
 parameters
 s6 scaling factor         :     0.4180 
 a1 scaling factor         :     0.0000 
 s8 scaling factor         :     0.0000 
 a2 scaling factor         :     5.6500 
 ad hoc parameters k1-k3   :    16.0000     1.3333    -4.0000 

 Edisp/kcal,au: -12.823084242360  -0.020434883304 
 E6   /kcal   : -12.823084242 
 E8   /kcal   :  -0.000000000 
 % E8         :   0.000000000 

-------------------------   ----------------
Dispersion correction           -0.020434883
-------------------------   ----------------


-------------------------   --------------------
FINAL SINGLE POINT ENERGY     -1479.041507773951
-------------------------   --------------------


                            ***************************************
                            *     ORCA property calculations      *
                            ***************************************


  WARNING: The energy has been calculated at the MP2 level but the densities
           used in the property calculations are still SCF densities
           MP2 response densities have not been calculated 
           use %mp2 Density relaxed end
           or  %mp2 Density unrelaxed end

                                    ---------------------
                                    Active property flags
                                    ---------------------
   (+) Dipole Moment


------------------------------------------------------------------------------
                       ORCA ELECTRIC PROPERTIES CALCULATION
------------------------------------------------------------------------------

Dipole Moment Calculation                       ... on
Quadrupole Moment Calculation                   ... off
Polarizability Calculation                      ... off
GBWName                                         ... HA.27.avtz.gbw
Electron density                                ... HA.27.avtz.scfp
The origin for moment calculation is the CENTER OF MASS  = (-1.014137,  1.468633 -5.754322)

-------------
DIPOLE MOMENT
-------------
                                X             Y             Z
Electronic contribution:     -4.95596      -0.39707      23.49973
Nuclear contribution   :      5.25119      -0.50086     -25.94407
                        -----------------------------------------
Total Dipole Moment    :      0.29523      -0.89792      -2.44434
                        -----------------------------------------
Magnitude (a.u.)       :      2.62073
Magnitude (Debye)      :      6.66136



--------------------
Rotational spectrum 
--------------------
 
Rotational constants in cm-1:     0.047675     0.006114     0.005621 
Rotational constants in MHz :  1429.253508   183.290642   168.522543 

 Dipole components along the rotational axes: 
x,y,z [a.u.] :    -2.370576    -0.482180    -1.008007 
x,y,z [Debye]:    -6.025526    -1.225604    -2.562149 

 

Timings for individual modules:

Sum of individual times         ...      303.288 sec (=   5.055 min)
GTO integral calculation        ...        3.148 sec (=   0.052 min)   1.0 %
SCF iterations                  ...      274.781 sec (=   4.580 min)  90.6 %
MP2 module                      ...       25.360 sec (=   0.423 min)   8.4 %
                             ****ORCA TERMINATED NORMALLY****
TOTAL RUN TIME: 0 days 0 hours 5 minutes 5 seconds 808 msec
