
                                 *****************
                                 * O   R   C   A *
                                 *****************

                                            #,                                       
                                            ###                                      
                                            ####                                     
                                            #####                                    
                                            ######                                   
                                           ########,                                 
                                     ,,################,,,,,                         
                               ,,#################################,,                 
                          ,,##########################################,,             
                       ,#########################################, ''#####,          
                    ,#############################################,,   '####,        
                  ,##################################################,,,,####,       
                ,###########''''           ''''###############################       
              ,#####''   ,,,,##########,,,,          '''####'''          '####       
            ,##' ,,,,###########################,,,                        '##       
           ' ,,###''''                  '''############,,,                           
         ,,##''                                '''############,,,,        ,,,,,,###''
      ,#''                                            '''#######################'''  
     '                                                          ''''####''''         
             ,#######,   #######,   ,#######,      ##                                
            ,#'     '#,  ##    ##  ,#'     '#,    #''#        ######   ,####,        
            ##       ##  ##   ,#'  ##            #'  '#       #        #'  '#        
            ##       ##  #######   ##           ,######,      #####,   #    #        
            '#,     ,#'  ##    ##  '#,     ,#' ,#      #,         ##   #,  ,#        
             '#######'   ##     ##  '#######'  #'      '#     #####' # '####'        



                  #######################################################
                  #                        -***-                        #
                  #          Department of theory and spectroscopy      #
                  #    Directorship and core code : Frank Neese         #
                  #        Max Planck Institute fuer Kohlenforschung    #
                  #                Kaiser Wilhelm Platz 1               #
                  #                 D-45470 Muelheim/Ruhr               #
                  #                      Germany                        #
                  #                                                     #
                  #                  All rights reserved                #
                  #                        -***-                        #
                  #######################################################


                         Program Version 5.0.3 -  RELEASE  -


 With contributions from (in alphabetic order):
   Daniel Aravena         : Magnetic Suceptibility
   Michael Atanasov       : Ab Initio Ligand Field Theory (pilot matlab implementation)
   Alexander A. Auer      : GIAO ZORA, VPT2 properties, NMR spectrum
   Ute Becker             : Parallelization
   Giovanni Bistoni       : ED, misc. LED, open-shell LED, HFLD
   Martin Brehm           : Molecular dynamics
   Dmytro Bykov           : SCF Hessian
   Vijay G. Chilkuri      : MRCI spin determinant printing, contributions to CSF-ICE
   Dipayan Datta          : RHF DLPNO-CCSD density
   Achintya Kumar Dutta   : EOM-CC, STEOM-CC
   Dmitry Ganyushin       : Spin-Orbit,Spin-Spin,Magnetic field MRCI
   Miquel Garcia          : C-PCM and meta-GGA Hessian, CC/C-PCM, Gaussian charge scheme
   Yang Guo               : DLPNO-NEVPT2, F12-NEVPT2, CIM, IAO-localization
   Andreas Hansen         : Spin unrestricted coupled pair/coupled cluster methods
   Benjamin Helmich-Paris : MC-RPA, TRAH-SCF, COSX integrals
   Lee Huntington         : MR-EOM, pCC
   Robert Izsak           : Overlap fitted RIJCOSX, COSX-SCS-MP3, EOM
   Marcus Kettner         : VPT2
   Christian Kollmar      : KDIIS, OOCD, Brueckner-CCSD(T), CCSD density, CASPT2, CASPT2-K
   Simone Kossmann        : Meta GGA functionals, TD-DFT gradient, OOMP2, MP2 Hessian
   Martin Krupicka        : Initial AUTO-CI
   Lucas Lang             : DCDCAS
   Marvin Lechner         : AUTO-CI (C++ implementation), FIC-MRCC
   Dagmar Lenk            : GEPOL surface, SMD
   Dimitrios Liakos       : Extrapolation schemes; Compound Job, initial MDCI parallelization
   Dimitrios Manganas     : Further ROCIS development; embedding schemes
   Dimitrios Pantazis     : SARC Basis sets
   Anastasios Papadopoulos: AUTO-CI, single reference methods and gradients
   Taras Petrenko         : DFT Hessian,TD-DFT gradient, ASA, ECA, R-Raman, ABS, FL, XAS/XES, NRVS
   Peter Pinski           : DLPNO-MP2, DLPNO-MP2 Gradient
   Christoph Reimann      : Effective Core Potentials
   Marius Retegan         : Local ZFS, SOC
   Christoph Riplinger    : Optimizer, TS searches, QM/MM, DLPNO-CCSD(T), (RO)-DLPNO pert. Triples
   Tobias Risthaus        : Range-separated hybrids, TD-DFT gradient, RPA, STAB
   Michael Roemelt        : Original ROCIS implementation
   Masaaki Saitow         : Open-shell DLPNO-CCSD energy and density
   Barbara Sandhoefer     : DKH picture change effects
   Avijit Sen             : IP-ROCIS
   Kantharuban Sivalingam : CASSCF convergence, NEVPT2, FIC-MRCI
   Bernardo de Souza      : ESD, SOC TD-DFT
   Georgi Stoychev        : AutoAux, RI-MP2 NMR, DLPNO-MP2 response
   Willem Van den Heuvel  : Paramagnetic NMR
   Boris Wezisla          : Elementary symmetry handling
   Frank Wennmohs         : Technical directorship


 We gratefully acknowledge several colleagues who have allowed us to
 interface, adapt or use parts of their codes:
   Stefan Grimme, W. Hujo, H. Kruse, P. Pracht,  : VdW corrections, initial TS optimization,
                  C. Bannwarth, S. Ehlert          DFT functionals, gCP, sTDA/sTD-DF
   Ed Valeev, F. Pavosevic, A. Kumar             : LibInt (2-el integral package), F12 methods
   Garnet Chan, S. Sharma, J. Yang, R. Olivares  : DMRG
   Ulf Ekstrom                                   : XCFun DFT Library
   Mihaly Kallay                                 : mrcc  (arbitrary order and MRCC methods)
   Jiri Pittner, Ondrej Demel                    : Mk-CCSD
   Frank Weinhold                                : gennbo (NPA and NBO analysis)
   Christopher J. Cramer and Donald G. Truhlar   : smd solvation model
   Lars Goerigk                                  : TD-DFT with DH, B97 family of functionals
   V. Asgeirsson, H. Jonsson                     : NEB implementation
   FAccTs GmbH                                   : IRC, NEB, NEB-TS, DLPNO-Multilevel, CI-OPT
                                                   MM, QMMM, 2- and 3-layer-ONIOM, Crystal-QMMM,
                                                   LR-CPCM, SF, NACMEs, symmetry and pop. for TD-DFT,
                                                   nearIR, NL-DFT gradient (VV10), updates on ESD,
                                                   ML-optimized integration grids
   S Lehtola, MJT Oliveira, MAL Marques          : LibXC Library
   Liviu Ungur et al                             : ANISO software


 Your calculation uses the libint2 library for the computation of 2-el integrals
 For citations please refer to: http://libint.valeyev.net

 Your ORCA version has been built with support for libXC version: 5.1.0
 For citations please refer to: https://tddft.org/programs/libxc/

 This ORCA versions uses:
   CBLAS   interface :  Fast vector & matrix operations
   LAPACKE interface :  Fast linear algebra routines
   SCALAPACK package :  Parallel linear algebra routines
   Shared memory     :  Shared parallel matrices
   BLAS/LAPACK       :  OpenBLAS 0.3.15  USE64BITINT DYNAMIC_ARCH NO_AFFINITY SkylakeX SINGLE_THREADED
        Core in use  :  SkylakeX
   Copyright (c) 2011-2014, The OpenBLAS Project


Your calculation utilizes the atom-pairwise dispersion correction
with the Becke-Johnson damping scheme (D3BJ)
Cite in your paper:
S.Grimme, S.Ehrlich, L.Goerigk, J Comput Chem, (2011), 32, 1456–1465 
S.Grimme, J.Antony, S.Ehrlich and H.Krieg, J.Chem.Phys., 132, (2010), 154104 
   

================================================================================

----- Orbital basis set information -----
Your calculation utilizes the basis: aug-cc-pVTZ 
    H, B-Ne : Obtained from the ccRepo (grant-hill.group.shef.ac.uk/ccrepo) Feb. 2017
              R. A. Kendall, T. H. Dunning, Jr., R. J. Harrison, J. Chem. Phys. 96, 6796 (1992)
         He : Obtained from the ccRepo (grant-hill.group.shef.ac.uk/ccrepo) Feb. 2017
              D. E. Woon, T. H. Dunning, Jr., J. Chem. Phys. 100, 2975 (1994)
  Li-Be, Na : Obtained from the ccRepo (grant-hill.group.shef.ac.uk/ccrepo) Feb. 2017
              B. P. Prascher, D. E. Woon, K. A. Peterson, T. H. Dunning, Jr., A. K. Wilson, Theor. Chem. Acc. 128, 69 (2011)
         Mg : Obtained from the Peterson Research Group Website (tyr0.chem.wsu.edu/~kipeters) Feb. 2017
              B. P. Prascher, D. E. Woon, K. A. Peterson, T. H. Dunning, Jr., A. K. Wilson, Theor. Chem. Acc. 128, 69 (2011)
      Al-Ar : Obtained from the ccRepo (grant-hill.group.shef.ac.uk/ccrepo) Feb. 2017
              D. E. Woon, T. H. Dunning, Jr., J. Chem. Phys. 98, 1358 (1993)
      Sc-Zn : Obtained from the ccRepo (grant-hill.group.shef.ac.uk/ccrepo) Feb. 2017
              N. B. Balabanov, K. A. Peterson, J. Chem. Phys. 123, 064107 (2005)
              N. B. Balabanov, K. A. Peterson, J. Chem. Phys. 125, 074110 (2006)
      Ga-Kr : Obtained from the ccRepo (grant-hill.group.shef.ac.uk/ccrepo) Feb. 2017
              A. K. Wilson, D. E. Woon, K. A. Peterson, T. H. Dunning, Jr., J. Chem. Phys. 110, 7667 (1999)
     Ag, Au : Obtained from the Peterson Research Group Website (tyr0.chem.wsu.edu/~kipeters) Feb. 2017
              K. A. Peterson, C. Puzzarini, Theor. Chem. Acc. 114, 283 (2005)

----- AuxJ basis set information -----
Your calculation utilizes the auxiliary basis: def2/J
   F. Weigend, Phys. Chem. Chem. Phys. 8, 1057 (2006).

----- AuxC basis set information -----
Your calculation utilizes the auxiliary basis: aug-cc-pVTZ/C 
  H-He, B-F, Al-Ar, Ga-Kr : Obtained from the EMSL Basis Set Exchange (bse.pnl.gov) Feb. 2017
                            F. Weigend, A. Kohn, C. Hattig, J. Chem. Phys. 116, 3175 (2002)
                   Be, Mg : Obtained from the TURBOMOLE 7.0 basis set library
                            C. Haettig, Phys. Chem. Chem. Phys. 7, 59 (2005)
                       Ne : Obtained from the EMSL Basis Set Exchange (bse.pnl.gov) Feb. 2017
                            C. Haettig, Phys. Chem. Chem. Phys. 7, 59 (2005)
                            F. Weigend, A. Kohn, C. Hattig, J. Chem. Phys. 116, 3175 (2002)
                    Sc-Zn : Obtained from the EMSL Basis Set Exchange (bse.pnl.gov) Feb. 2017
                            J. G. Hill, J. A. Platts, J. Chem. Phys. 128, 044104 (2008)

================================================================================
                                        WARNINGS
                       Please study these warnings very carefully!
================================================================================


WARNING: No MP2 level density has been requested!
         To caclulate MP2 level properties use
         %mp2 Density relaxed end
         or
         %mp2 Density unrelaxed end
         Otherwise for double-hybrid DFT only the energy is correct!

WARNING: There are different parametrizations of Gershom Martin's DSD-DFs
         for use with and without D3(BJ)!
         You are using the D3(BJ) parametrized version,
         consistent with the GMTKN55 benchmark (L. Goerigk et al., PCCP 2017, 19, 32184)

WARNING: The frozen-core approximation is turned on by default for 
         the MP2 part of double-hybrid DFT.

INFO   : the flag for use of the SHARK integral package has been found!

================================================================================
                                       INPUT FILE
================================================================================
NAME = HA.29.avtz.com
|  1> !PAL8
|  2> !RI-DSD-PBEP86 D3BJ aug-cc-pVTZ aug-cc-pVTZ/C TightSCF
|  3> %maxcore 3000
|  4> 
|  5> 
|  6> * xyz 0 1
|  7> C -1.3871951978  0.3018223486 -1.1272016414
|  8> C -2.492358695  0.6681482678 -1.9091716409
|  9> Cl -4.042285176  1.0028713706 -1.1924949971
| 10> C -2.3953406965  0.7639764177 -3.2874728345
| 11> H -3.2671531259  1.0471515533 -3.8693575988
| 12> C -1.1708088963  0.4980302054 -3.9171700364
| 13> C -0.0659346743  0.1093120216 -3.1416703808
| 14> C  1.207998689 -0.2980004201 -3.8010007077
| 15> C -0.1831475287  0.0121108133 -1.7604777105
| 16> H  0.6772759916 -0.3007768147 -1.1754967095
| 17> S -1.4271846444  0.225618972  0.662221561
| 18> O -0.1238650092 -0.2661555887  1.0675920601
| 19> O -1.9747443576  1.4739230581  1.1539465284
| 20> N -2.5099041592 -0.9576951658  1.0913820343
| 21> H -2.2258562313 -1.8812810995  0.7748455314
| 22> H -3.4691807604 -0.7268967644  0.8450855324
| 23> N -1.0252784104  0.5450982191 -5.286903057
| 24> C  0.3024182805  0.8556652847 -5.8052623941
| 25> N  1.2848484635 -0.0076533263 -5.1437086134
| 26> C  0.665673469  2.3346153042 -5.6632773292
| 27> H -1.7792833665  0.9962151253 -5.7915895838
| 28> H  0.305524927  0.5794628354 -6.8630064392
| 29> H  1.6679260049  2.5137449181 -6.0655868
| 30> H  0.6476917525  2.633335925 -4.6097621199
| 31> O  2.0907794994 -0.8838503379 -3.1973855957
| 32> C  2.464024255 -0.3370469246 -5.8893824143
| 33> C  3.7124956712  0.2126057192 -5.5624622437
| 34> C  3.9151803827  1.1265424246 -4.3844547504
| 35> C  4.8010079106 -0.13714435 -6.3706946061
| 36> H  5.7775933508  0.2778116295 -6.1331838564
| 37> C  4.6633811919 -0.9898364941 -7.4610251809
| 38> H  5.5299406972 -1.2370838772 -8.066999969
| 39> C  3.4139559187 -1.525030121 -7.7710289249
| 40> H  3.2946091475 -2.1993626853 -8.6133358365
| 41> C  2.3195805473 -1.1985232181 -6.9790328557
| 42> H  1.3392766159 -1.6216615433 -7.1846137087
| 43> H -0.0447759422  2.9564099667 -6.2180958903
| 44> H  4.770987932  1.7855188443 -4.5544261462
| 45> H  4.0953618903  0.538291521 -3.4791325662
| 46> H  3.0354572834  1.7472949856 -4.1904321083
| 47> *
| 48> 
| 49>                          ****END OF INPUT****
================================================================================

                       ****************************
                       * Single Point Calculation *
                       ****************************

---------------------------------
CARTESIAN COORDINATES (ANGSTROEM)
---------------------------------
  C     -1.387195    0.301822   -1.127202
  C     -2.492359    0.668148   -1.909172
  Cl    -4.042285    1.002871   -1.192495
  C     -2.395341    0.763976   -3.287473
  H     -3.267153    1.047152   -3.869358
  C     -1.170809    0.498030   -3.917170
  C     -0.065935    0.109312   -3.141670
  C      1.207999   -0.298000   -3.801001
  C     -0.183148    0.012111   -1.760478
  H      0.677276   -0.300777   -1.175497
  S     -1.427185    0.225619    0.662222
  O     -0.123865   -0.266156    1.067592
  O     -1.974744    1.473923    1.153947
  N     -2.509904   -0.957695    1.091382
  H     -2.225856   -1.881281    0.774846
  H     -3.469181   -0.726897    0.845086
  N     -1.025278    0.545098   -5.286903
  C      0.302418    0.855665   -5.805262
  N      1.284848   -0.007653   -5.143709
  C      0.665673    2.334615   -5.663277
  H     -1.779283    0.996215   -5.791590
  H      0.305525    0.579463   -6.863006
  H      1.667926    2.513745   -6.065587
  H      0.647692    2.633336   -4.609762
  O      2.090779   -0.883850   -3.197386
  C      2.464024   -0.337047   -5.889382
  C      3.712496    0.212606   -5.562462
  C      3.915180    1.126542   -4.384455
  C      4.801008   -0.137144   -6.370695
  H      5.777593    0.277812   -6.133184
  C      4.663381   -0.989836   -7.461025
  H      5.529941   -1.237084   -8.067000
  C      3.413956   -1.525030   -7.771029
  H      3.294609   -2.199363   -8.613336
  C      2.319581   -1.198523   -6.979033
  H      1.339277   -1.621662   -7.184614
  H     -0.044776    2.956410   -6.218096
  H      4.770988    1.785519   -4.554426
  H      4.095362    0.538292   -3.479133
  H      3.035457    1.747295   -4.190432

----------------------------
CARTESIAN COORDINATES (A.U.)
----------------------------
  NO LB      ZA    FRAG     MASS         X           Y           Z
   0 C     6.0000    0    12.011   -2.621419    0.570362   -2.130102
   1 C     6.0000    0    12.011   -4.709875    1.262617   -3.607812
   2 Cl   17.0000    0    35.453   -7.638812    1.895152   -2.253489
   3 C     6.0000    0    12.011   -4.526538    1.443706   -6.212423
   4 H     1.0000    0     1.008   -6.174025    1.978830   -7.312026
   5 C     6.0000    0    12.011   -2.212508    0.941141   -7.402379
   6 C     6.0000    0    12.011   -0.124598    0.206570   -5.936897
   7 C     6.0000    0    12.011    2.282787   -0.563139   -7.182850
   8 C     6.0000    0    12.011   -0.346099    0.022886   -3.326821
   9 H     1.0000    0     1.008    1.279866   -0.568386   -2.221367
  10 S    16.0000    0    32.060   -2.696988    0.426358    1.251417
  11 O     8.0000    0    15.999   -0.234071   -0.502961    2.017457
  12 O     8.0000    0    15.999   -3.731726    2.785311    2.180643
  13 N     7.0000    0    14.007   -4.743031   -1.809782    2.062413
  14 H     1.0000    0     1.008   -4.206259   -3.555106    1.464246
  15 H     1.0000    0     1.008   -6.555802   -1.373636    1.596980
  16 N     7.0000    0    14.007   -1.937495    1.030086   -9.990799
  17 C     6.0000    0    12.011    0.571488    1.616973  -10.970356
  18 N     7.0000    0    14.007    2.428012   -0.014463   -9.720201
  19 C     6.0000    0    12.011    1.257941    4.411784  -10.702043
  20 H     1.0000    0     1.008   -3.362358    1.882574  -10.944518
  21 H     1.0000    0     1.008    0.577358    1.095026  -12.969203
  22 H     1.0000    0     1.008    3.151923    4.750289  -11.462298
  23 H     1.0000    0     1.008    1.223960    4.976284   -8.711188
  24 O     8.0000    0    15.999    3.951001   -1.670235   -6.042183
  25 C     6.0000    0    12.011    4.656331   -0.636926  -11.129320
  26 C     6.0000    0    12.011    7.015600    0.401767  -10.511530
  27 C     6.0000    0    12.011    7.398619    2.128857   -8.285419
  28 C     6.0000    0    12.011    9.072590   -0.259165  -12.038868
  29 H     1.0000    0     1.008   10.918069    0.524988  -11.590038
  30 C     6.0000    0    12.011    8.812513   -1.870520  -14.099294
  31 H     1.0000    0     1.008   10.450073   -2.337750  -15.244421
  32 C     6.0000    0    12.011    6.451442   -2.881889  -14.685116
  33 H     1.0000    0     1.008    6.225909   -4.156193  -16.276846
  34 C     6.0000    0    12.011    4.383372   -2.264881  -13.188461
  35 H     1.0000    0     1.008    2.530866   -3.064496  -13.576952
  36 H     1.0000    0     1.008   -0.084614    5.586805  -11.750498
  37 H     1.0000    0     1.008    9.015861    3.374142   -8.606618
  38 H     1.0000    0     1.008    7.739112    1.017224   -6.574608
  39 H     1.0000    0     1.008    5.736183    3.301909   -7.918769

--------------------------------
INTERNAL COORDINATES (ANGSTROEM)
--------------------------------
 C      0   0   0     0.000000000000     0.00000000     0.00000000
 C      1   0   0     1.402518489981     0.00000000     0.00000000
 Cl     2   1   0     1.740096854724   121.49870933     0.00000000
 C      2   1   3     1.385030579672   121.17897623   180.69233171
 H      4   2   1     1.085741658224   119.67822891   179.84169009
 C      4   2   1     1.402399402317   119.66152478   359.65573673
 C      6   4   2     1.404723669870   119.43103242     1.37756891
 C      7   6   4     1.491149261229   120.22859497   174.39992152
 C      7   6   4     1.389561125184   120.11592287   358.92189709
 H      9   7   6     1.086475988493   119.24339842   179.30751850
 S      1   2   3     1.791491419944   123.39611696   356.67782055
 O     11   1   2     1.450796171621   105.86999489   176.64812486
 O     11   1   2     1.449095640204   108.10340176   309.48388594
 N     11   1   2     1.660329066266   107.64104519    63.87029692
 H     14  11   1     1.016803599493   112.62664567    63.30694151
 H     14  11   1     1.016927463759   113.00353726   293.44044208
 N      6   4   2     1.378246374188   122.13820079   178.33072638
 C     17   6   4     1.458741515012   117.16329482   152.96502419
 N      8   7   6     1.375889473304   114.93407710    12.31673113
 C     18  17   6     1.529512095672   112.89463984   284.97330618
 H     17   6   4     1.013281020851   115.57082154    14.30675684
 H     18  17   6     1.093215399268   107.01450941   164.45898192
 H     20  18  17     1.094737628197   109.97057169   179.98740964
 H     20  18  17     1.095194798949   110.43454556    59.77752643
 O      8   7   6     1.219374138167   122.06357773   194.65608722
 C     19   8   7     1.433521924216   120.33664749   179.38438591
 C     26  19   8     1.402738644171   121.38877581   299.08129159
 C     27  26  19     1.504680380687   122.70765770     2.79684604
 C     27  26  19     1.400151262493   117.35578874   181.79514181
 H     29  27  26     1.087344905334   118.47779243   180.05557404
 C     29  27  26     1.390987335907   121.91658589     0.27817095
 H     31  29  27     1.085938344699   119.86929165   179.85589305
 C     31  29  27     1.394129855099   119.88774396   359.78630984
 H     33  31  29     1.085563905259   120.63254022   180.59969824
 C     33  31  29     1.389792065309   119.26171745   359.85253965
 H     35  33  31     1.087338644256   120.71429505   181.51198844
 H     20  18  17     1.095075615622   110.36053652   299.47180656
 H     28  27  26     1.093410608395   110.47477013   206.16057021
 H     28  27  26     1.094583372097   110.07649307    85.87830260
 H     28  27  26     1.094025255228   112.03455857   327.08036460

---------------------------
INTERNAL COORDINATES (A.U.)
---------------------------
 C      0   0   0     0.000000000000     0.00000000     0.00000000
 C      1   0   0     2.650375843825     0.00000000     0.00000000
 Cl     2   1   0     3.288306501927   121.49870933     0.00000000
 C      2   1   3     2.617328482685   121.17897623   180.69233171
 H      4   2   1     2.051754386233   119.67822891   179.84169009
 C      4   2   1     2.650150800754   119.66152478   359.65573673
 C      6   4   2     2.654543029891   119.43103242     1.37756891
 C      7   6   4     2.817863728521   120.22859497   174.39992152
 C      7   6   4     2.625889972941   120.11592287   358.92189709
 H      9   7   6     2.053142069333   119.24339842   179.30751850
 S      1   2   3     3.385428154963   123.39611696   356.67782055
 O     11   1   2     2.741607440505   105.86999489   176.64812486
 O     11   1   2     2.738393901845   108.10340176   309.48388594
 N     11   1   2     3.137567227433   107.64104519    63.87029692
 H     14  11   1     1.921480335026   112.62664567    63.30694151
 H     14  11   1     1.921714404567   113.00353726   293.44044208
 N      6   4   2     2.604508192285   122.13820079   178.33072638
 C     17   6   4     2.756621963555   117.16329482   152.96502419
 N      8   7   6     2.600054295089   114.93407710    12.31673113
 C     18  17   6     2.890358979339   112.89463984   284.97330618
 H     17   6   4     1.914823626108   115.57082154    14.30675684
 H     18  17   6     2.065877710002   107.01450941   164.45898192
 H     20  18  17     2.068754305790   109.97057169   179.98740964
 H     20  18  17     2.069618233309   110.43454556    59.77752643
 O      8   7   6     2.304283175923   122.06357773   194.65608722
 C     19   8   7     2.708963843741   120.33664749   179.38438591
 C     26  19   8     2.650791874951   121.38877581   299.08129159
 C     27  26  19     2.843433838583   122.70765770     2.79684604
 C     27  26  19     2.645902432175   117.35578874   181.79514181
 H     29  27  26     2.054784084196   118.47779243   180.05557404
 C     29  27  26     2.628585120617   121.91658589     0.27817095
 H     31  29  27     2.052126069806   119.86929165   179.85589305
 C     31  29  27     2.634523621261   119.88774396   359.78630984
 H     33  31  29     2.051418481809   120.63254022   180.59969824
 C     33  31  29     2.626326386531   119.26171745   359.85253965
 H     35  33  31     2.054772252472   120.71429505   181.51198844
 H     20  18  17     2.069393009460   110.36053652   299.47180656
 H     28  27  26     2.066246601790   110.47477013   206.16057021
 H     28  27  26     2.068462804008   110.07649307    85.87830260
 H     28  27  26     2.067408115975   112.03455857   327.08036460

---------------------
BASIS SET INFORMATION
---------------------
There are 6 groups of distinct atoms

 Group   1 Type C   : 19s6p3d2f contracted to 5s4p3d2f pattern {88111/3111/111/11}
 Group   2 Type Cl  : 42s17p3d2f contracted to 6s5p3d2f pattern {131313111/77111/111/11}
 Group   3 Type H   : 6s3p2d contracted to 4s3p2d pattern {3111/111/11}
 Group   4 Type S   : 42s17p3d2f contracted to 6s5p3d2f pattern {131313111/77111/111/11}
 Group   5 Type O   : 19s6p3d2f contracted to 5s4p3d2f pattern {88111/3111/111/11}
 Group   6 Type N   : 19s6p3d2f contracted to 5s4p3d2f pattern {88111/3111/111/11}

Atom   0C    basis set group =>   1
Atom   1C    basis set group =>   1
Atom   2Cl   basis set group =>   2
Atom   3C    basis set group =>   1
Atom   4H    basis set group =>   3
Atom   5C    basis set group =>   1
Atom   6C    basis set group =>   1
Atom   7C    basis set group =>   1
Atom   8C    basis set group =>   1
Atom   9H    basis set group =>   3
Atom  10S    basis set group =>   4
Atom  11O    basis set group =>   5
Atom  12O    basis set group =>   5
Atom  13N    basis set group =>   6
Atom  14H    basis set group =>   3
Atom  15H    basis set group =>   3
Atom  16N    basis set group =>   6
Atom  17C    basis set group =>   1
Atom  18N    basis set group =>   6
Atom  19C    basis set group =>   1
Atom  20H    basis set group =>   3
Atom  21H    basis set group =>   3
Atom  22H    basis set group =>   3
Atom  23H    basis set group =>   3
Atom  24O    basis set group =>   5
Atom  25C    basis set group =>   1
Atom  26C    basis set group =>   1
Atom  27C    basis set group =>   1
Atom  28C    basis set group =>   1
Atom  29H    basis set group =>   3
Atom  30C    basis set group =>   1
Atom  31H    basis set group =>   3
Atom  32C    basis set group =>   1
Atom  33H    basis set group =>   3
Atom  34C    basis set group =>   1
Atom  35H    basis set group =>   3
Atom  36H    basis set group =>   3
Atom  37H    basis set group =>   3
Atom  38H    basis set group =>   3
Atom  39H    basis set group =>   3
---------------------------------
AUXILIARY/J BASIS SET INFORMATION
---------------------------------
There are 6 groups of distinct atoms

 Group   1 Type C   : 12s5p4d2f1g contracted to 6s4p3d1f1g pattern {711111/2111/211/2/1}
 Group   2 Type Cl  : 14s5p5d2f1g contracted to 8s4p3d1f1g pattern {71111111/2111/311/2/1}
 Group   3 Type H   : 5s2p1d contracted to 3s1p1d pattern {311/2/1}
 Group   4 Type S   : 14s5p5d2f1g contracted to 8s4p3d1f1g pattern {71111111/2111/311/2/1}
 Group   5 Type O   : 12s5p4d2f1g contracted to 6s4p3d1f1g pattern {711111/2111/211/2/1}
 Group   6 Type N   : 12s5p4d2f1g contracted to 6s4p3d1f1g pattern {711111/2111/211/2/1}

Atom   0C    basis set group =>   1
Atom   1C    basis set group =>   1
Atom   2Cl   basis set group =>   2
Atom   3C    basis set group =>   1
Atom   4H    basis set group =>   3
Atom   5C    basis set group =>   1
Atom   6C    basis set group =>   1
Atom   7C    basis set group =>   1
Atom   8C    basis set group =>   1
Atom   9H    basis set group =>   3
Atom  10S    basis set group =>   4
Atom  11O    basis set group =>   5
Atom  12O    basis set group =>   5
Atom  13N    basis set group =>   6
Atom  14H    basis set group =>   3
Atom  15H    basis set group =>   3
Atom  16N    basis set group =>   6
Atom  17C    basis set group =>   1
Atom  18N    basis set group =>   6
Atom  19C    basis set group =>   1
Atom  20H    basis set group =>   3
Atom  21H    basis set group =>   3
Atom  22H    basis set group =>   3
Atom  23H    basis set group =>   3
Atom  24O    basis set group =>   5
Atom  25C    basis set group =>   1
Atom  26C    basis set group =>   1
Atom  27C    basis set group =>   1
Atom  28C    basis set group =>   1
Atom  29H    basis set group =>   3
Atom  30C    basis set group =>   1
Atom  31H    basis set group =>   3
Atom  32C    basis set group =>   1
Atom  33H    basis set group =>   3
Atom  34C    basis set group =>   1
Atom  35H    basis set group =>   3
Atom  36H    basis set group =>   3
Atom  37H    basis set group =>   3
Atom  38H    basis set group =>   3
Atom  39H    basis set group =>   3
---------------------------------
AUXILIARY/C BASIS SET INFORMATION
---------------------------------
There are 6 groups of distinct atoms

 Group   1 Type C   : 9s7p6d4f2g contracted to 9s7p6d4f2g pattern {111111111/1111111/111111/1111/11}
 Group   2 Type Cl  : 11s9p8d6f3g contracted to 11s9p8d6f3g pattern {11111111111/111111111/11111111/111111/111}
 Group   3 Type H   : 5s4p3d2f contracted to 5s4p3d2f pattern {11111/1111/111/11}
 Group   4 Type S   : 11s9p8d6f3g contracted to 11s9p8d6f3g pattern {11111111111/111111111/11111111/111111/111}
 Group   5 Type O   : 9s7p6d4f2g contracted to 9s7p6d4f2g pattern {111111111/1111111/111111/1111/11}
 Group   6 Type N   : 9s7p6d4f2g contracted to 9s7p6d4f2g pattern {111111111/1111111/111111/1111/11}

Atom   0C    basis set group =>   1
Atom   1C    basis set group =>   1
Atom   2Cl   basis set group =>   2
Atom   3C    basis set group =>   1
Atom   4H    basis set group =>   3
Atom   5C    basis set group =>   1
Atom   6C    basis set group =>   1
Atom   7C    basis set group =>   1
Atom   8C    basis set group =>   1
Atom   9H    basis set group =>   3
Atom  10S    basis set group =>   4
Atom  11O    basis set group =>   5
Atom  12O    basis set group =>   5
Atom  13N    basis set group =>   6
Atom  14H    basis set group =>   3
Atom  15H    basis set group =>   3
Atom  16N    basis set group =>   6
Atom  17C    basis set group =>   1
Atom  18N    basis set group =>   6
Atom  19C    basis set group =>   1
Atom  20H    basis set group =>   3
Atom  21H    basis set group =>   3
Atom  22H    basis set group =>   3
Atom  23H    basis set group =>   3
Atom  24O    basis set group =>   5
Atom  25C    basis set group =>   1
Atom  26C    basis set group =>   1
Atom  27C    basis set group =>   1
Atom  28C    basis set group =>   1
Atom  29H    basis set group =>   3
Atom  30C    basis set group =>   1
Atom  31H    basis set group =>   3
Atom  32C    basis set group =>   1
Atom  33H    basis set group =>   3
Atom  34C    basis set group =>   1
Atom  35H    basis set group =>   3
Atom  36H    basis set group =>   3
Atom  37H    basis set group =>   3
Atom  38H    basis set group =>   3
Atom  39H    basis set group =>   3


           ************************************************************
           *        Program running with 8 parallel MPI-processes     *
           *              working on a common directory               *
           ************************************************************
------------------------------------------------------------------------------
                           ORCA GTO INTEGRAL CALCULATION
                           -- RI-GTO INTEGRALS CHOSEN --
------------------------------------------------------------------------------
------------------------------------------------------------------------------
                   ___                                                        
                  /   \      - P O W E R E D   B Y -                         
                 /     \                                                     
                 |  |  |   _    _      __       _____    __    __             
                 |  |  |  | |  | |    /  \     |  _  \  |  |  /  |          
                  \  \/   | |  | |   /    \    | | | |  |  | /  /          
                 / \  \   | |__| |  /  /\  \   | |_| |  |  |/  /          
                |  |  |   |  __  | /  /__\  \  |    /   |      \           
                |  |  |   | |  | | |   __   |  |    \   |  |\   \          
                \     /   | |  | | |  |  |  |  | |\  \  |  | \   \       
                 \___/    |_|  |_| |__|  |__|  |_| \__\ |__|  \__/        
                                                                              
                      - O R C A' S   B I G   F R I E N D -                    
                                      &                                       
                       - I N T E G R A L  F E E D E R -                       
                                                                              
 v1 FN, 2020, v2 2021                                                         
------------------------------------------------------------------------------


Reading SHARK input file HA.29.avtz.SHARKINP.tmp ... ok
----------------------
SHARK INTEGRAL PACKAGE
----------------------

Number of atoms                             ...     40
Number of basis functions                   ...   1662
Number of shells                            ...    646
Maximum angular momentum                    ...      3
Integral batch strategy                     ... SHARK/LIBINT Hybrid
RI-J (if used) integral strategy            ... SPLIT-RIJ (Revised 2003 algorithm where possible)
Printlevel                                  ...      1
Contraction scheme used                     ... PARTIAL GENERAL contraction
Coulomb Range Separation                    ... NOT USED
Exchange Range Separation                   ... NOT USED
Finite Nucleus Model                        ... NOT USED
Auxiliary Coulomb fitting basis             ... AVAILABLE
   # of basis functions in Aux-J            ...   1356
   # of shells in Aux-J                     ...    444
   Maximum angular momentum in Aux-J        ...      4
Auxiliary J/K fitting basis                 ... NOT available
Auxiliary Correlation fitting basis         ... AVAILABLE
   # of basis functions in Aux-C            ...   3362
   # of shells in Aux-C                     ...    914
   Maximum angular momentum in Aux-C        ...      4
Auxiliary 'external' fitting basis          ... NOT available
Integral threshold                          ...     2.500000e-11
Primitive cut-off                           ...     2.500000e-12
Primitive pair pre-selection threshold      ...     2.500000e-12

Calculating pre-screening integrals         ... done (  0.1 sec) Dimension = 646
Calculating pre-screening integrals (ORCA)  ... done (  0.4 sec) Dimension = 484
Organizing shell pair data                  ... done (  1.4 sec)
Shell pair information
Total number of shell pairs                 ...    208981
Shell pairs after pre-screening             ...    134232
Total number of primitive shell pairs       ...    261117
Primitive shell pairs kept                  ...    153590
          la=0 lb=0:  29366 shell pairs
          la=1 lb=0:  35194 shell pairs
          la=1 lb=1:   9540 shell pairs
          la=2 lb=0:  22817 shell pairs
          la=2 lb=1:  12471 shell pairs
          la=2 lb=2:   4184 shell pairs
          la=3 lb=0:  10310 shell pairs
          la=3 lb=1:   5669 shell pairs
          la=3 lb=2:   3788 shell pairs
          la=3 lb=3:    893 shell pairs

Calculating one electron integrals          ... done (  0.3 sec)
Calculating RI/J V-Matrix + Cholesky decomp.... done (  0.1 sec)
Calculating RI/C V-Matrix + Cholesky decomp.... done (  0.6 sec)
Calculating Nuclear repulsion               ... done (  0.0 sec) ENN=   2400.651667760165 Eh

SHARK setup successfully completed in   4.4 seconds

Maximum memory used throughout the entire GTOINT-calculation: 175.7 MB


           ************************************************************
           *        Program running with 8 parallel MPI-processes     *
           *              working on a common directory               *
           ************************************************************
-------------------------------------------------------------------------------
                                 ORCA SCF
-------------------------------------------------------------------------------

------------
SCF SETTINGS
------------
Hamiltonian:
 Density Functional     Method          .... DFT(GTOs)
 Exchange Functional    Exchange        .... PBE
   PBE kappa parameter   XKappa         ....  0.804000
   PBE mue parameter    XMuePBE         ....  0.219520
 Correlation Functional Correlation     .... P86
 LDA part of GGA corr.  LDAOpt          .... VWN-5
 Gradients option       PostSCFGGA      .... off
 Hybrid DFT is turned on
   Fraction HF Exchange ScalHFX         ....  0.700000
   Scaling of DF-GGA-X  ScalDFX         ....  0.300000
   Scaling of DF-GGA-C  ScalDFC         ....  0.430000
   Scaling of DF-LDA-C  ScalLDAC        ....  0.430000
   Perturbative correction              ....  1.000000
   Density functional embedding theory  .... OFF
   NL short-range parameter             .... 14.200000
 RI-approximation to the Coulomb term is turned on
   Number of AuxJ basis functions       .... 1356
   RIJ-COSX (HFX calculated with COS-X)).... on


General Settings:
 Integral files         IntName         .... HA.29.avtz
 Hartree-Fock type      HFTyp           .... RHF
 Total Charge           Charge          ....    0
 Multiplicity           Mult            ....    1
 Number of Electrons    NEL             ....  190
 Basis Dimension        Dim             .... 1480
 Nuclear Repulsion      ENuc            ....   2400.6516677602 Eh

Convergence Acceleration:
 DIIS                   CNVDIIS         .... on
   Start iteration      DIISMaxIt       ....    12
   Startup error        DIISStart       ....  0.200000
   # of expansion vecs  DIISMaxEq       ....     5
   Bias factor          DIISBfac        ....   1.050
   Max. coefficient     DIISMaxC        ....  10.000
 Trust-Rad. Augm. Hess. CNVTRAH         .... auto
   Auto Start mean grad. ratio tolernc. ....  1.125000
   Auto Start start iteration           ....    20
   Auto Start num. interpolation iter.  ....    10
   Max. Number of Micro iterations      ....    16
   Max. Number of Macro iterations      .... Maxiter - #DIIS iter
   Number of Davidson start vectors     ....     2
   Converg. threshold I  (grad. norm)   ....   1.000e-05
   Converg. threshold II (energy diff.) ....   1.000e-08
   Grad. Scal. Fac. for Micro threshold ....   0.100
   Minimum threshold for Micro iter.    ....   0.010
   NR start threshold (gradient norm)   ....   0.001
   Initial trust radius                 ....   0.400
   Minimum AH scaling param. (alpha)    ....   1.000
   Maximum AH scaling param. (alpha)    .... 1000.000
   Orbital update algorithm             .... Taylor
   White noise on init. David. guess    .... on
   Maximum white noise                  ....   0.010
   Quad. conv. algorithm                .... NR
 SOSCF                  CNVSOSCF        .... on
   Start iteration      SOSCFMaxIt      ....   150
   Startup grad/error   SOSCFStart      ....  0.003300
 Level Shifting         CNVShift        .... on
   Level shift para.    LevelShift      ....    0.2500
   Turn off err/grad.   ShiftErr        ....    0.0010
 Zerner damping         CNVZerner       .... off
 Static damping         CNVDamp         .... on
   Fraction old density DampFac         ....    0.7000
   Max. Damping (<1)    DampMax         ....    0.9800
   Min. Damping (>=0)   DampMin         ....    0.0000
   Turn off err/grad.   DampErr         ....    0.1000
 Fernandez-Rico         CNVRico         .... off

SCF Procedure:
 Maximum # iterations   MaxIter         ....   125
 SCF integral mode      SCFMode         .... Direct
   Integral package                     .... SHARK and LIBINT hybrid scheme
 Reset frequency        DirectResetFreq ....    20
 Integral Threshold     Thresh          ....  2.500e-11 Eh
 Primitive CutOff       TCut            ....  2.500e-12 Eh

Convergence Tolerance:
 Convergence Check Mode ConvCheckMode   .... Total+1el-Energy
 Convergence forced     ConvForced      .... 0
 Energy Change          TolE            ....  1.000e-08 Eh
 1-El. energy change                    ....  1.000e-05 Eh
 Orbital Gradient       TolG            ....  1.000e-05
 Orbital Rotation angle TolX            ....  1.000e-05
 DIIS Error             TolErr          ....  5.000e-07


Diagonalization of the overlap matrix:
Smallest eigenvalue                        ... 1.133e-07
Time for diagonalization                   ...    0.287 sec
Threshold for overlap eigenvalues          ... 1.000e-08
Number of eigenvalues below threshold      ... 0
Time for construction of square roots      ...    0.221 sec
Total time needed                          ...    0.518 sec

Time for model grid setup =    0.467 sec

------------------------------
INITIAL GUESS: MODEL POTENTIAL
------------------------------
Loading Hartree-Fock densities                     ... done
Calculating cut-offs                               ... done
Initializing the effective Hamiltonian             ... done
Setting up the integral package (SHARK)            ... done
Starting the Coulomb interaction                   ... done (   2.1 sec)
Reading the grid                                   ... done
Mapping shells                                     ... done
Starting the XC term evaluation                    ... done (   1.9 sec)
  promolecular density results
     # of electrons  =    189.982596339
     EX              =   -183.128466841
     EC              =     -0.076996648
     EX+EC           =   -183.205463488
Transforming the Hamiltonian                       ... done (   0.1 sec)
Diagonalizing the Hamiltonian                      ... done (   0.3 sec)
Back transforming the eigenvectors                 ... done (   0.1 sec)
Now organizing SCF variables                       ... done
                      ------------------
                      INITIAL GUESS DONE (   5.0 sec)
                      ------------------
-------------------
DFT GRID GENERATION
-------------------

General Integration Accuracy     IntAcc      ... 4.388
Radial Grid Type                 RadialGrid  ... OptM3 with GC (2021)
Angular Grid (max. ang.)         AngularGrid ... 4 (Lebedev-302)
Angular grid pruning method      GridPruning ... 4 (adaptive)
Weight generation scheme         WeightScheme... Becke
Basis function cutoff            BFCut       ... 1.0000e-11
Integration weight cutoff        WCut        ... 1.0000e-14
Angular grids for H and He will be reduced by one unit
Partially contracted basis set               ... off
Rotationally invariant grid construction     ... off

Total number of grid points                  ...   205045
Total number of batches                      ...     3223
Average number of points per batch           ...       63
Average number of grid points per atom       ...     5126
Time for grid setup =    1.692 sec

--------------------
COSX GRID GENERATION
--------------------

GRIDX 1
-------
General Integration Accuracy     IntAcc      ... 3.816
Radial Grid Type                 RadialGrid  ... OptM3 with GC (2021)
Angular Grid (max. ang.)         AngularGrid ... 1 (Lebedev-50)
Angular grid pruning method      GridPruning ... 4 (adaptive)
Weight generation scheme         WeightScheme... Becke
Basis function cutoff            BFCut       ... 1.0000e-11
Integration weight cutoff        WCut        ... 1.0000e-14
Angular grids for H and He will be reduced by one unit
Partially contracted basis set               ... on
Rotationally invariant grid construction     ... off

Total number of grid points                  ...    25478
Total number of batches                      ...      418
Average number of points per batch           ...       60
Average number of grid points per atom       ...      637
UseSFitting                                  ... on

GRIDX 2
-------
General Integration Accuracy     IntAcc      ... 4.020
Radial Grid Type                 RadialGrid  ... OptM3 with GC (2021)
Angular Grid (max. ang.)         AngularGrid ... 2 (Lebedev-110)
Angular grid pruning method      GridPruning ... 4 (adaptive)
Weight generation scheme         WeightScheme... Becke
Basis function cutoff            BFCut       ... 1.0000e-11
Integration weight cutoff        WCut        ... 1.0000e-14
Angular grids for H and He will be reduced by one unit
Partially contracted basis set               ... on
Rotationally invariant grid construction     ... off

Total number of grid points                  ...    61023
Total number of batches                      ...      974
Average number of points per batch           ...       62
Average number of grid points per atom       ...     1526
UseSFitting                                  ... on

GRIDX 3
-------
General Integration Accuracy     IntAcc      ... 4.338
Radial Grid Type                 RadialGrid  ... OptM3 with GC (2021)
Angular Grid (max. ang.)         AngularGrid ... 3 (Lebedev-194)
Angular grid pruning method      GridPruning ... 4 (adaptive)
Weight generation scheme         WeightScheme... Becke
Basis function cutoff            BFCut       ... 1.0000e-11
Integration weight cutoff        WCut        ... 1.0000e-14
Angular grids for H and He will be reduced by one unit
Partially contracted basis set               ... on
Rotationally invariant grid construction     ... off

Total number of grid points                  ...   135537
Total number of batches                      ...     2136
Average number of points per batch           ...       63
Average number of grid points per atom       ...     3388
UseSFitting                                  ... on

Time for X-Grid setup             =    5.292 sec

 re-compute Schwartz prescreening matrix in partically contracted basis (1) ...done (   0.175 sec)
--------------
SCF ITERATIONS
--------------
ITER       Energy         Delta-E        Max-DP      RMS-DP      [F,P]     Damp
               ***  Starting incremental Fock matrix formation  ***
  0  -1862.7089999794   0.000000000000 3.70686715  0.01297654  0.2905806 0.7000
  1  -1863.0010079984  -0.292008018961 3.64172832  0.01245600  0.1491277 0.7000
                               ***Turning on DIIS***
  2  -1863.1496130531  -0.148605054692 9.97515276  0.03466050  0.0691346 0.0000
  3  -1863.4085351560  -0.258922102948 1.78574205  0.00788005  0.0661224 0.0000
  4  -1863.4407417356  -0.032206579561 0.86818314  0.00260175  0.0097881 0.0000
  5  -1863.4419782909  -0.001236555364 0.36549856  0.00144680  0.0076974 0.0000
                      *** Initiating the SOSCF procedure ***
                           *** Shutting down DIIS ***
                      *** Re-Reading the Fockian *** 
                      *** Removing any level shift *** 
ITER      Energy       Delta-E        Grad      Rot      Max-DP    RMS-DP
  6  -1863.44232970  -0.0003514066  0.000778  0.000778  0.213821  0.001057
               *** Restarting incremental Fock matrix formation ***
  7  -1863.44241254  -0.0000828409  0.000369  0.000777  3.697606  0.016452
  8  -1863.44246782  -0.0000552851  0.000164  0.000500  0.202787  0.001075
  9  -1863.44246952  -0.0000016945  0.000078  0.000101  0.151308  0.000758
 10  -1863.44247139  -0.0000018748  0.000024  0.000075  0.167737  0.001035
 11  -1863.44247131   0.0000000863  0.000012  0.000022  0.120213  0.000668
 12  -1863.44247121   0.0000000933  0.000006  0.000014  0.256162  0.000840
 13  -1863.44247127  -0.0000000579  0.000004  0.000004  0.163875  0.000644
 14  -1863.44247131  -0.0000000339  0.000005  0.000009  0.280779  0.001154
 15  -1863.44247098   0.0000003300  0.000006  0.000007  0.171449  0.000800
 16  -1863.44247101  -0.0000000328  0.000004  0.000006  0.159923  0.000661
 17  -1863.44247095   0.0000000538  0.000003  0.000002  0.080820  0.000289
 18  -1863.44247107  -0.0000001186  0.000004  0.000015  0.354059  0.001458
 19  -1863.44247108  -0.0000000034  0.000021  0.000013  0.308597  0.001246
                  ***Gradient check signals convergence***
              ***Rediagonalizing the Fockian in SOSCF/NRSCF***

               *****************************************************
               *                     SUCCESS                       *
               *           SCF CONVERGED AFTER  20 CYCLES          *
               *****************************************************

Old exchange energy                            =   -130.264923179 Eh
New exchange energy                            =   -130.264594914 Eh
Exchange energy change after final integration =      0.000328265 Eh
Total energy after final integration           =  -1863.442142890 Eh
Final COS-X integration done in                =   122.982 sec

----------------
TOTAL SCF ENERGY
----------------

Total Energy       :        -1863.44214289 Eh          -50706.83859 eV

Components:
Nuclear Repulsion  :         2400.65166776 Eh           65325.05294 eV
Electronic Energy  :        -4264.09381065 Eh         -116031.89154 eV
One Electron Energy:        -7329.56187974 Eh         -199447.51846 eV
Two Electron Energy:         3065.46806909 Eh           83415.62693 eV
Max COSX asymmetry :            0.00012207 Eh               0.00332 eV

Virial components:
Potential Energy   :        -3722.03018243 Eh         -101281.59032 eV
Kinetic Energy     :         1858.58803954 Eh           50574.75173 eV
Virial Ratio       :            2.00261172


DFT components:
N(Alpha)           :       95.000121504644 electrons
N(Beta)            :       95.000121504644 electrons
N(Total)           :      190.000243009287 electrons
E(X)               :      -55.597633589200 Eh       
E(C)               :       -3.163532970297 Eh       
E(XC)              :      -58.761166559498 Eh       
DFET-embed. en.    :        0.000000000000 Eh       

---------------
SCF CONVERGENCE
---------------

  Last Energy change         ...   -7.9154e-08  Tolerance :   1.0000e-08
  Last MAX-Density change    ...    1.4211e-14  Tolerance :   1.0000e-07
  Last RMS-Density change    ...    4.8655e-17  Tolerance :   5.0000e-09
  Last Orbital Gradient      ...    1.4252e-06  Tolerance :   1.0000e-05
  Last Orbital Rotation      ...    1.8810e-06  Tolerance :   1.0000e-05

             **** THE GBW FILE WAS UPDATED (HA.29.avtz.gbw) ****
             **** DENSITY HA.29.avtz.scfp WAS UPDATED ****
             **** ENERGY FILE WAS UPDATED (HA.29.avtz.en.tmp) ****
             **** THE GBW FILE WAS UPDATED (HA.29.avtz.gbw) ****
             **** DENSITY HA.29.avtz.scfp WAS UPDATED ****
----------------
ORBITAL ENERGIES
----------------

  NO   OCC          E(Eh)            E(eV) 
   0   2.0000    -103.639924     -2820.1857 
   1   2.0000     -91.041591     -2477.3676 
   2   2.0000     -20.013758      -544.6020 
   3   2.0000     -20.012220      -544.5602 
   4   2.0000     -19.996283      -544.1265 
   5   2.0000     -15.146694      -412.1625 
   6   2.0000     -15.144587      -412.1052 
   7   2.0000     -15.134911      -411.8419 
   8   2.0000     -10.962022      -298.2918 
   9   2.0000     -10.948487      -297.9235 
  10   2.0000     -10.942150      -297.7510 
  11   2.0000     -10.929822      -297.4156 
  12   2.0000     -10.887889      -296.2745 
  13   2.0000     -10.885879      -296.2198 
  14   2.0000     -10.880986      -296.0867 
  15   2.0000     -10.873841      -295.8923 
  16   2.0000     -10.867428      -295.7178 
  17   2.0000     -10.857333      -295.4431 
  18   2.0000     -10.849130      -295.2198 
  19   2.0000     -10.848088      -295.1915 
  20   2.0000     -10.846003      -295.1348 
  21   2.0000     -10.844845      -295.1032 
  22   2.0000     -10.842465      -295.0385 
  23   2.0000     -10.826424      -294.6020 
  24   2.0000     -10.187870      -277.2260 
  25   2.0000      -8.783970      -239.0240 
  26   2.0000      -7.761064      -211.1893 
  27   2.0000      -7.756489      -211.0648 
  28   2.0000      -7.756224      -211.0576 
  29   2.0000      -6.570148      -178.7828 
  30   2.0000      -6.568981      -178.7511 
  31   2.0000      -6.567229      -178.7034 
  32   2.0000      -1.337538       -36.3963 
  33   2.0000      -1.276792       -34.7433 
  34   2.0000      -1.221672       -33.2434 
  35   2.0000      -1.207836       -32.8669 
  36   2.0000      -1.144915       -31.1547 
  37   2.0000      -1.114783       -30.3348 
  38   2.0000      -1.104572       -30.0569 
  39   2.0000      -1.053285       -28.6613 
  40   2.0000      -1.047024       -28.4910 
  41   2.0000      -0.978126       -26.6162 
  42   2.0000      -0.960397       -26.1337 
  43   2.0000      -0.954522       -25.9739 
  44   2.0000      -0.935357       -25.4524 
  45   2.0000      -0.916176       -24.9304 
  46   2.0000      -0.856331       -23.3019 
  47   2.0000      -0.837081       -22.7781 
  48   2.0000      -0.814142       -22.1539 
  49   2.0000      -0.802987       -21.8504 
  50   2.0000      -0.776759       -21.1367 
  51   2.0000      -0.756427       -20.5834 
  52   2.0000      -0.742292       -20.1988 
  53   2.0000      -0.703283       -19.1373 
  54   2.0000      -0.687673       -18.7125 
  55   2.0000      -0.683564       -18.6007 
  56   2.0000      -0.659080       -17.9345 
  57   2.0000      -0.652885       -17.7659 
  58   2.0000      -0.627820       -17.0838 
  59   2.0000      -0.617179       -16.7943 
  60   2.0000      -0.611617       -16.6429 
  61   2.0000      -0.603432       -16.4202 
  62   2.0000      -0.599002       -16.2997 
  63   2.0000      -0.589165       -16.0320 
  64   2.0000      -0.581056       -15.8113 
  65   2.0000      -0.575893       -15.6708 
  66   2.0000      -0.560671       -15.2566 
  67   2.0000      -0.560336       -15.2475 
  68   2.0000      -0.547412       -14.8958 
  69   2.0000      -0.540179       -14.6990 
  70   2.0000      -0.534247       -14.5376 
  71   2.0000      -0.525454       -14.2983 
  72   2.0000      -0.522930       -14.2296 
  73   2.0000      -0.518922       -14.1206 
  74   2.0000      -0.510792       -13.8994 
  75   2.0000      -0.496239       -13.5034 
  76   2.0000      -0.491870       -13.3845 
  77   2.0000      -0.483866       -13.1667 
  78   2.0000      -0.470756       -12.8099 
  79   2.0000      -0.457627       -12.4527 
  80   2.0000      -0.455869       -12.4048 
  81   2.0000      -0.454565       -12.3693 
  82   2.0000      -0.449230       -12.2242 
  83   2.0000      -0.440972       -11.9994 
  84   2.0000      -0.436850       -11.8873 
  85   2.0000      -0.431598       -11.7444 
  86   2.0000      -0.414764       -11.2863 
  87   2.0000      -0.409474       -11.1423 
  88   2.0000      -0.404331       -11.0024 
  89   2.0000      -0.380616       -10.3571 
  90   2.0000      -0.367500       -10.0002 
  91   2.0000      -0.342082        -9.3085 
  92   2.0000      -0.318531        -8.6677 
  93   2.0000      -0.312097        -8.4926 
  94   2.0000      -0.302380        -8.2282 
  95   0.0000       0.001838         0.0500 
  96   0.0000       0.003672         0.0999 
  97   0.0000       0.014866         0.4045 
  98   0.0000       0.017419         0.4740 
  99   0.0000       0.018858         0.5132 
 100   0.0000       0.027026         0.7354 
 101   0.0000       0.028551         0.7769 
 102   0.0000       0.032584         0.8866 
 103   0.0000       0.034709         0.9445 
 104   0.0000       0.038526         1.0483 
 105   0.0000       0.044782         1.2186 
 106   0.0000       0.046187         1.2568 
 107   0.0000       0.048938         1.3317 
 108   0.0000       0.049662         1.3514 
 109   0.0000       0.052104         1.4178 
 110   0.0000       0.057266         1.5583 
 111   0.0000       0.059601         1.6218 
 112   0.0000       0.063592         1.7304 
 113   0.0000       0.067714         1.8426 
 114   0.0000       0.068329         1.8593 
 115   0.0000       0.072843         1.9822 
 116   0.0000       0.073806         2.0084 
 117   0.0000       0.079185         2.1547 
 118   0.0000       0.079940         2.1753 
 119   0.0000       0.085260         2.3200 
 120   0.0000       0.086056         2.3417 
 121   0.0000       0.087871         2.3911 
 122   0.0000       0.091376         2.4865 
 123   0.0000       0.094457         2.5703 
 124   0.0000       0.095765         2.6059 
 125   0.0000       0.096345         2.6217 
 126   0.0000       0.101482         2.7615 
 127   0.0000       0.103893         2.8271 
 128   0.0000       0.105415         2.8685 
 129   0.0000       0.106352         2.8940 
 130   0.0000       0.108664         2.9569 
 131   0.0000       0.113612         3.0915 
 132   0.0000       0.114483         3.1152 
 133   0.0000       0.115878         3.1532 
 134   0.0000       0.116687         3.1752 
 135   0.0000       0.117688         3.2025 
 136   0.0000       0.122077         3.3219 
 137   0.0000       0.123946         3.3727 
 138   0.0000       0.126653         3.4464 
 139   0.0000       0.128318         3.4917 
 140   0.0000       0.129767         3.5312 
 141   0.0000       0.132954         3.6179 
 142   0.0000       0.135415         3.6848 
 143   0.0000       0.136282         3.7084 
 144   0.0000       0.138182         3.7601 
 145   0.0000       0.142980         3.8907 
 146   0.0000       0.143867         3.9148 
 147   0.0000       0.146412         3.9841 
 148   0.0000       0.148239         4.0338 
 149   0.0000       0.150442         4.0937 
 150   0.0000       0.152132         4.1397 
 151   0.0000       0.155465         4.2304 
 152   0.0000       0.157190         4.2774 
 153   0.0000       0.158382         4.3098 
 154   0.0000       0.161288         4.3889 
 155   0.0000       0.164920         4.4877 
 156   0.0000       0.167878         4.5682 
 157   0.0000       0.170234         4.6323 
 158   0.0000       0.173312         4.7161 
 159   0.0000       0.175080         4.7642 
 160   0.0000       0.176627         4.8063 
 161   0.0000       0.182127         4.9559 
 162   0.0000       0.183345         4.9891 
 163   0.0000       0.187493         5.1019 
 164   0.0000       0.189477         5.1559 
 165   0.0000       0.191181         5.2023 
 166   0.0000       0.195613         5.3229 
 167   0.0000       0.196607         5.3499 
 168   0.0000       0.199804         5.4369 
 169   0.0000       0.203185         5.5289 
 170   0.0000       0.205893         5.6026 
 171   0.0000       0.206669         5.6237 
 172   0.0000       0.207704         5.6519 
 173   0.0000       0.210970         5.7408 
 174   0.0000       0.213930         5.8213 
 175   0.0000       0.215842         5.8733 
 176   0.0000       0.218131         5.9356 
 177   0.0000       0.218842         5.9550 
 178   0.0000       0.220151         5.9906 
 179   0.0000       0.222649         6.0586 
 180   0.0000       0.225554         6.1376 
 181   0.0000       0.225805         6.1445 
 182   0.0000       0.231318         6.2945 
 183   0.0000       0.233395         6.3510 
 184   0.0000       0.234783         6.3888 
 185   0.0000       0.237838         6.4719 
 186   0.0000       0.238330         6.4853 
 187   0.0000       0.240060         6.5324 
 188   0.0000       0.242314         6.5937 
 189   0.0000       0.243912         6.6372 
 190   0.0000       0.246290         6.7019 
 191   0.0000       0.247234         6.7276 
 192   0.0000       0.249074         6.7776 
 193   0.0000       0.251716         6.8495 
 194   0.0000       0.254212         6.9175 
 195   0.0000       0.255376         6.9491 
 196   0.0000       0.257936         7.0188 
 197   0.0000       0.262635         7.1467 
 198   0.0000       0.264867         7.2074 
 199   0.0000       0.267343         7.2748 
 200   0.0000       0.268379         7.3030 
 201   0.0000       0.269903         7.3444 
 202   0.0000       0.271453         7.3866 
 203   0.0000       0.274886         7.4800 
 204   0.0000       0.277216         7.5434 
 205   0.0000       0.278101         7.5675 
 206   0.0000       0.281397         7.6572 
 207   0.0000       0.282491         7.6870 
 208   0.0000       0.284600         7.7444 
 209   0.0000       0.286806         7.8044 
 210   0.0000       0.287916         7.8346 
 211   0.0000       0.289498         7.8777 
 212   0.0000       0.292698         7.9647 
 213   0.0000       0.294077         8.0023 
 214   0.0000       0.299213         8.1420 
 215   0.0000       0.300638         8.1808 
 216   0.0000       0.301242         8.1972 
 217   0.0000       0.305915         8.3244 
 218   0.0000       0.308229         8.3873 
 219   0.0000       0.309241         8.4149 
 220   0.0000       0.311011         8.4630 
 221   0.0000       0.313945         8.5429 
 222   0.0000       0.317042         8.6271 
 223   0.0000       0.320037         8.7086 
 224   0.0000       0.320647         8.7253 
 225   0.0000       0.323204         8.7948 
 226   0.0000       0.326142         8.8748 
 227   0.0000       0.327379         8.9084 
 228   0.0000       0.330165         8.9843 
 229   0.0000       0.337321         9.1790 
 230   0.0000       0.340002         9.2519 
 231   0.0000       0.343275         9.3410 
 232   0.0000       0.344083         9.3630 
 233   0.0000       0.345562         9.4032 
 234   0.0000       0.348385         9.4800 
 235   0.0000       0.348855         9.4928 
 236   0.0000       0.351566         9.5666 
 237   0.0000       0.352314         9.5869 
 238   0.0000       0.354772         9.6539 
 239   0.0000       0.360204         9.8016 
 240   0.0000       0.361439         9.8353 
 241   0.0000       0.365239         9.9386 
 242   0.0000       0.367441         9.9986 
 243   0.0000       0.368344        10.0232 
 244   0.0000       0.371245        10.1021 
 245   0.0000       0.374187        10.1821 
 246   0.0000       0.374536        10.1916 
 247   0.0000       0.376725        10.2512 
 248   0.0000       0.380495        10.3538 
 249   0.0000       0.383380        10.4323 
 250   0.0000       0.383691        10.4408 
 251   0.0000       0.384888        10.4733 
 252   0.0000       0.389480        10.5983 
 253   0.0000       0.391045        10.6409 
 254   0.0000       0.396877        10.7996 
 255   0.0000       0.398811        10.8522 
 256   0.0000       0.401363        10.9216 
 257   0.0000       0.404588        11.0094 
 258   0.0000       0.407048        11.0763 
 259   0.0000       0.407745        11.0953 
 260   0.0000       0.411227        11.1901 
 261   0.0000       0.412064        11.2128 
 262   0.0000       0.413422        11.2498 
 263   0.0000       0.418495        11.3878 
 264   0.0000       0.420172        11.4335 
 265   0.0000       0.422386        11.4937 
 266   0.0000       0.424974        11.5641 
 267   0.0000       0.427167        11.6238 
 268   0.0000       0.428512        11.6604 
 269   0.0000       0.432003        11.7554 
 270   0.0000       0.433648        11.8002 
 271   0.0000       0.436438        11.8761 
 272   0.0000       0.437678        11.9098 
 273   0.0000       0.441418        12.0116 
 274   0.0000       0.444978        12.1085 
 275   0.0000       0.445974        12.1356 
 276   0.0000       0.446221        12.1423 
 277   0.0000       0.446979        12.1629 
 278   0.0000       0.450814        12.2673 
 279   0.0000       0.451896        12.2967 
 280   0.0000       0.452932        12.3249 
 281   0.0000       0.458409        12.4739 
 282   0.0000       0.462342        12.5810 
 283   0.0000       0.463669        12.6171 
 284   0.0000       0.466178        12.6854 
 285   0.0000       0.466540        12.6952 
 286   0.0000       0.469999        12.7893 
 287   0.0000       0.472819        12.8660 
 288   0.0000       0.474517        12.9123 
 289   0.0000       0.477805        13.0017 
 290   0.0000       0.479047        13.0355 
 291   0.0000       0.480332        13.0705 
 292   0.0000       0.481606        13.1052 
 293   0.0000       0.483381        13.1535 
 294   0.0000       0.485418        13.2089 
 295   0.0000       0.489162        13.3108 
 296   0.0000       0.490291        13.3415 
 297   0.0000       0.493512        13.4292 
 298   0.0000       0.494387        13.4530 
 299   0.0000       0.496853        13.5201 
 300   0.0000       0.499743        13.5987 
 301   0.0000       0.501359        13.6427 
 302   0.0000       0.504516        13.7286 
 303   0.0000       0.506477        13.7820 
 304   0.0000       0.508801        13.8452 
 305   0.0000       0.510528        13.8922 
 306   0.0000       0.512464        13.9449 
 307   0.0000       0.515357        14.0236 
 308   0.0000       0.515827        14.0364 
 309   0.0000       0.518738        14.1156 
 310   0.0000       0.521282        14.1848 
 311   0.0000       0.523854        14.2548 
 312   0.0000       0.526687        14.3319 
 313   0.0000       0.528074        14.3696 
 314   0.0000       0.530834        14.4447 
 315   0.0000       0.531829        14.4718 
 316   0.0000       0.536388        14.5958 
 317   0.0000       0.538877        14.6636 
 318   0.0000       0.541352        14.7309 
 319   0.0000       0.545795        14.8518 
 320   0.0000       0.547768        14.9055 
 321   0.0000       0.549429        14.9507 
 322   0.0000       0.553698        15.0669 
 323   0.0000       0.557166        15.1613 
 324   0.0000       0.559941        15.2368 
 325   0.0000       0.561712        15.2850 
 326   0.0000       0.564324        15.3560 
 327   0.0000       0.565955        15.4004 
 328   0.0000       0.569388        15.4938 
 329   0.0000       0.575534        15.6611 
 330   0.0000       0.576901        15.6983 
 331   0.0000       0.578343        15.7375 
 332   0.0000       0.582572        15.8526 
 333   0.0000       0.587257        15.9801 
 334   0.0000       0.589843        16.0505 
 335   0.0000       0.591329        16.0909 
 336   0.0000       0.595663        16.2088 
 337   0.0000       0.601859        16.3774 
 338   0.0000       0.604675        16.4540 
 339   0.0000       0.607210        16.5230 
 340   0.0000       0.610524        16.6132 
 341   0.0000       0.612089        16.6558 
 342   0.0000       0.612707        16.6726 
 343   0.0000       0.613726        16.7003 
 344   0.0000       0.618624        16.8336 
 345   0.0000       0.624004        16.9800 
 346   0.0000       0.627177        17.0664 
 347   0.0000       0.628548        17.1037 
 348   0.0000       0.632750        17.2180 
 349   0.0000       0.634187        17.2571 
 350   0.0000       0.637555        17.3488 
 351   0.0000       0.640583        17.4312 
 352   0.0000       0.642923        17.4948 
 353   0.0000       0.645756        17.5719 
 354   0.0000       0.649792        17.6817 
 355   0.0000       0.650319        17.6961 
 356   0.0000       0.656273        17.8581 
 357   0.0000       0.660517        17.9736 
 358   0.0000       0.663795        18.0628 
 359   0.0000       0.665251        18.1024 
 360   0.0000       0.670034        18.2325 
 361   0.0000       0.672484        18.2992 
 362   0.0000       0.673870        18.3369 
 363   0.0000       0.676153        18.3990 
 364   0.0000       0.678998        18.4765 
 365   0.0000       0.682505        18.5719 
 366   0.0000       0.685879        18.6637 
 367   0.0000       0.687150        18.6983 
 368   0.0000       0.690612        18.7925 
 369   0.0000       0.693107        18.8604 
 370   0.0000       0.698898        19.0180 
 371   0.0000       0.700529        19.0624 
 372   0.0000       0.702006        19.1025 
 373   0.0000       0.704949        19.1826 
 374   0.0000       0.706930        19.2365 
 375   0.0000       0.710539        19.3347 
 376   0.0000       0.713108        19.4046 
 377   0.0000       0.717144        19.5145 
 378   0.0000       0.718960        19.5639 
 379   0.0000       0.721711        19.6388 
 380   0.0000       0.728129        19.8134 
 381   0.0000       0.731308        19.8999 
 382   0.0000       0.732720        19.9383 
 383   0.0000       0.734894        19.9975 
 384   0.0000       0.739024        20.1099 
 385   0.0000       0.740479        20.1494 
 386   0.0000       0.742368        20.2009 
 387   0.0000       0.745047        20.2738 
 388   0.0000       0.748882        20.3781 
 389   0.0000       0.752716        20.4824 
 390   0.0000       0.758436        20.6381 
 391   0.0000       0.760872        20.7044 
 392   0.0000       0.762720        20.7547 
 393   0.0000       0.766247        20.8507 
 394   0.0000       0.770275        20.9602 
 395   0.0000       0.774650        21.0793 
 396   0.0000       0.776055        21.1175 
 397   0.0000       0.777855        21.1665 
 398   0.0000       0.781747        21.2724 
 399   0.0000       0.785226        21.3671 
 400   0.0000       0.787469        21.4281 
 401   0.0000       0.790552        21.5120 
 402   0.0000       0.792848        21.5745 
 403   0.0000       0.794643        21.6233 
 404   0.0000       0.796662        21.6783 
 405   0.0000       0.800418        21.7805 
 406   0.0000       0.807008        21.9598 
 407   0.0000       0.810695        22.0601 
 408   0.0000       0.814542        22.1648 
 409   0.0000       0.817171        22.2363 
 410   0.0000       0.817331        22.2407 
 411   0.0000       0.820495        22.3268 
 412   0.0000       0.824076        22.4242 
 413   0.0000       0.825334        22.4585 
 414   0.0000       0.826431        22.4883 
 415   0.0000       0.830662        22.6035 
 416   0.0000       0.833054        22.6686 
 417   0.0000       0.833585        22.6830 
 418   0.0000       0.836474        22.7616 
 419   0.0000       0.839767        22.8512 
 420   0.0000       0.842500        22.9256 
 421   0.0000       0.847797        23.0697 
 422   0.0000       0.849430        23.1142 
 423   0.0000       0.851182        23.1619 
 424   0.0000       0.854362        23.2484 
 425   0.0000       0.859395        23.3853 
 426   0.0000       0.860834        23.4245 
 427   0.0000       0.864432        23.5224 
 428   0.0000       0.865354        23.5475 
 429   0.0000       0.869465        23.6593 
 430   0.0000       0.877045        23.8656 
 431   0.0000       0.877723        23.8841 
 432   0.0000       0.879825        23.9413 
 433   0.0000       0.883704        24.0468 
 434   0.0000       0.884831        24.0775 
 435   0.0000       0.886859        24.1327 
 436   0.0000       0.890980        24.2448 
 437   0.0000       0.891372        24.2555 
 438   0.0000       0.896607        24.3979 
 439   0.0000       0.897539        24.4233 
 440   0.0000       0.903401        24.5828 
 441   0.0000       0.904001        24.5991 
 442   0.0000       0.910845        24.7854 
 443   0.0000       0.912317        24.8254 
 444   0.0000       0.914344        24.8806 
 445   0.0000       0.915951        24.9243 
 446   0.0000       0.920388        25.0450 
 447   0.0000       0.921721        25.0813 
 448   0.0000       0.924085        25.1456 
 449   0.0000       0.928103        25.2550 
 450   0.0000       0.929643        25.2969 
 451   0.0000       0.933602        25.4046 
 452   0.0000       0.936961        25.4960 
 453   0.0000       0.940343        25.5880 
 454   0.0000       0.942166        25.6377 
 455   0.0000       0.945144        25.7187 
 456   0.0000       0.948618        25.8132 
 457   0.0000       0.950232        25.8571 
 458   0.0000       0.951495        25.8915 
 459   0.0000       0.955752        26.0073 
 460   0.0000       0.958259        26.0755 
 461   0.0000       0.961542        26.1649 
 462   0.0000       0.964347        26.2412 
 463   0.0000       0.967679        26.3319 
 464   0.0000       0.970373        26.4052 
 465   0.0000       0.973540        26.4914 
 466   0.0000       0.977225        26.5916 
 467   0.0000       0.979851        26.6631 
 468   0.0000       0.981026        26.6951 
 469   0.0000       0.983553        26.7638 
 470   0.0000       0.984277        26.7835 
 471   0.0000       0.986030        26.8312 
 472   0.0000       0.989865        26.9356 
 473   0.0000       0.993570        27.0364 
 474   0.0000       0.995816        27.0975 
 475   0.0000       0.999891        27.2084 
 476   0.0000       1.001948        27.2644 
 477   0.0000       1.006388        27.3852 
 478   0.0000       1.007523        27.4161 
 479   0.0000       1.012291        27.5458 
 480   0.0000       1.013762        27.5859 
 481   0.0000       1.017652        27.6917 
 482   0.0000       1.018574        27.7168 
 483   0.0000       1.023458        27.8497 
 484   0.0000       1.025105        27.8945 
 485   0.0000       1.029000        28.0005 
 486   0.0000       1.032381        28.0925 
 487   0.0000       1.034057        28.1381 
 488   0.0000       1.037237        28.2247 
 489   0.0000       1.038793        28.2670 
 490   0.0000       1.041150        28.3311 
 491   0.0000       1.045446        28.4480 
 492   0.0000       1.048492        28.5309 
 493   0.0000       1.051020        28.5997 
 494   0.0000       1.052795        28.6480 
 495   0.0000       1.054851        28.7039 
 496   0.0000       1.056560        28.7504 
 497   0.0000       1.062137        28.9022 
 498   0.0000       1.064027        28.9536 
 499   0.0000       1.068274        29.0692 
 500   0.0000       1.069493        29.1024 
 501   0.0000       1.071506        29.1572 
 502   0.0000       1.073848        29.2209 
 503   0.0000       1.078842        29.3568 
 504   0.0000       1.079250        29.3679 
 505   0.0000       1.082732        29.4626 
 506   0.0000       1.084335        29.5063 
 507   0.0000       1.087312        29.5873 
 508   0.0000       1.088929        29.6313 
 509   0.0000       1.091949        29.7134 
 510   0.0000       1.094705        29.7884 
 511   0.0000       1.098388        29.8886 
 512   0.0000       1.100589        29.9485 
 513   0.0000       1.101505        29.9735 
 514   0.0000       1.105870        30.0923 
 515   0.0000       1.109338        30.1866 
 516   0.0000       1.111443        30.2439 
 517   0.0000       1.112664        30.2771 
 518   0.0000       1.116899        30.3924 
 519   0.0000       1.121997        30.5311 
 520   0.0000       1.123359        30.5682 
 521   0.0000       1.128628        30.7115 
 522   0.0000       1.131003        30.7762 
 523   0.0000       1.133060        30.8321 
 524   0.0000       1.137264        30.9465 
 525   0.0000       1.139774        31.0148 
 526   0.0000       1.142932        31.1008 
 527   0.0000       1.143365        31.1125 
 528   0.0000       1.146482        31.1974 
 529   0.0000       1.151840        31.3432 
 530   0.0000       1.153407        31.3858 
 531   0.0000       1.156380        31.4667 
 532   0.0000       1.158137        31.5145 
 533   0.0000       1.161610        31.6090 
 534   0.0000       1.164023        31.6747 
 535   0.0000       1.170985        31.8641 
 536   0.0000       1.173363        31.9288 
 537   0.0000       1.174098        31.9488 
 538   0.0000       1.179039        32.0833 
 539   0.0000       1.182547        32.1788 
 540   0.0000       1.186428        32.2844 
 541   0.0000       1.187400        32.3108 
 542   0.0000       1.191002        32.4088 
 543   0.0000       1.192683        32.4546 
 544   0.0000       1.194578        32.5061 
 545   0.0000       1.199374        32.6366 
 546   0.0000       1.205069        32.7916 
 547   0.0000       1.209507        32.9124 
 548   0.0000       1.209816        32.9208 
 549   0.0000       1.213167        33.0120 
 550   0.0000       1.216182        33.0940 
 551   0.0000       1.219076        33.1727 
 552   0.0000       1.222317        33.2609 
 553   0.0000       1.224084        33.3090 
 554   0.0000       1.227213        33.3942 
 555   0.0000       1.228868        33.4392 
 556   0.0000       1.234837        33.6016 
 557   0.0000       1.236566        33.6487 
 558   0.0000       1.245495        33.8916 
 559   0.0000       1.249096        33.9896 
 560   0.0000       1.252925        34.0938 
 561   0.0000       1.256344        34.1869 
 562   0.0000       1.258093        34.2344 
 563   0.0000       1.261723        34.3332 
 564   0.0000       1.263269        34.3753 
 565   0.0000       1.269995        34.5583 
 566   0.0000       1.276729        34.7416 
 567   0.0000       1.279387        34.8139 
 568   0.0000       1.283430        34.9239 
 569   0.0000       1.285251        34.9735 
 570   0.0000       1.286522        35.0080 
 571   0.0000       1.291582        35.1457 
 572   0.0000       1.294779        35.2327 
 573   0.0000       1.297948        35.3190 
 574   0.0000       1.301528        35.4164 
 575   0.0000       1.303291        35.4643 
 576   0.0000       1.304817        35.5059 
 577   0.0000       1.307164        35.5697 
 578   0.0000       1.312751        35.7218 
 579   0.0000       1.318401        35.8755 
 580   0.0000       1.318740        35.8848 
 581   0.0000       1.323877        36.0245 
 582   0.0000       1.326749        36.1027 
 583   0.0000       1.330520        36.2053 
 584   0.0000       1.333315        36.2813 
 585   0.0000       1.337290        36.3895 
 586   0.0000       1.341925        36.5156 
 587   0.0000       1.345334        36.6084 
 588   0.0000       1.348951        36.7068 
 589   0.0000       1.351511        36.7765 
 590   0.0000       1.356687        36.9173 
 591   0.0000       1.357425        36.9374 
 592   0.0000       1.361848        37.0578 
 593   0.0000       1.363673        37.1074 
 594   0.0000       1.367460        37.2105 
 595   0.0000       1.371552        37.3218 
 596   0.0000       1.375602        37.4320 
 597   0.0000       1.380285        37.5595 
 598   0.0000       1.382174        37.6109 
 599   0.0000       1.382930        37.6314 
 600   0.0000       1.386050        37.7163 
 601   0.0000       1.391500        37.8646 
 602   0.0000       1.395437        37.9718 
 603   0.0000       1.397114        38.0174 
 604   0.0000       1.400191        38.1011 
 605   0.0000       1.404497        38.2183 
 606   0.0000       1.408008        38.3138 
 607   0.0000       1.410984        38.3948 
 608   0.0000       1.417148        38.5626 
 609   0.0000       1.421979        38.6940 
 610   0.0000       1.426772        38.8244 
 611   0.0000       1.427279        38.8382 
 612   0.0000       1.431060        38.9411 
 613   0.0000       1.436969        39.1019 
 614   0.0000       1.440559        39.1996 
 615   0.0000       1.445390        39.3311 
 616   0.0000       1.446960        39.3738 
 617   0.0000       1.448536        39.4167 
 618   0.0000       1.452289        39.5188 
 619   0.0000       1.454913        39.5902 
 620   0.0000       1.461590        39.7719 
 621   0.0000       1.464357        39.8472 
 622   0.0000       1.470029        40.0015 
 623   0.0000       1.473840        40.1052 
 624   0.0000       1.475970        40.1632 
 625   0.0000       1.483281        40.3621 
 626   0.0000       1.484454        40.3940 
 627   0.0000       1.492007        40.5996 
 628   0.0000       1.493576        40.6423 
 629   0.0000       1.494134        40.6575 
 630   0.0000       1.497137        40.7392 
 631   0.0000       1.502965        40.8978 
 632   0.0000       1.509439        41.0739 
 633   0.0000       1.510929        41.1145 
 634   0.0000       1.517349        41.2892 
[...]
      f0      :     0.032825  f :     0.334996
      f+1     :     0.075319
      f-1     :     0.019365
      f+2     :     0.040299
      f-2     :     0.055845
      f+3     :     0.075743
      f-3     :     0.035599
 33 H s       :     0.669830  s :     0.669830
      pz      :     0.116693  p :     0.298456
      px      :     0.075641
      py      :     0.106122
      dz2     :     0.054318  d :     0.211755
      dxz     :     0.049445
      dyz     :     0.050408
      dx2y2   :     0.023302
      dxy     :     0.034282
 34 C s       :     2.470797  s :     2.470797
      pz      :     0.757902  p :     2.258770
      px      :     0.819198
      py      :     0.681669
      dz2     :     0.167095  d :     0.702030
      dxz     :     0.154688
      dyz     :     0.121039
      dx2y2   :     0.122019
      dxy     :     0.137188
      f0      :     0.038530  f :     0.344005
      f+1     :     0.072599
      f-1     :     0.041916
      f+2     :     0.044411
      f-2     :     0.068483
      f+3     :     0.039102
      f-3     :     0.038964
 35 H s       :     0.649819  s :     0.649819
      pz      :     0.077130  p :     0.295385
      px      :     0.130097
      py      :     0.088158
      dz2     :     0.023007  d :     0.218089
      dxz     :     0.059451
      dyz     :     0.020547
      dx2y2   :     0.059411
      dxy     :     0.055673
 36 H s       :     0.629975  s :     0.629975
      pz      :     0.098576  p :     0.299708
      px      :     0.111738
      py      :     0.089394
      dz2     :     0.059758  d :     0.221886
      dxz     :     0.033114
      dyz     :     0.025487
      dx2y2   :     0.070048
      dxy     :     0.033479
 37 H s       :     0.625602  s :     0.625602
      pz      :     0.086013  p :     0.309573
      px      :     0.119984
      py      :     0.103576
      dz2     :     0.019752  d :     0.228725
      dxz     :     0.041002
      dyz     :     0.048900
      dx2y2   :     0.070848
      dxy     :     0.048223
 38 H s       :     0.610747  s :     0.610747
      pz      :     0.119442  p :     0.320352
      px      :     0.090791
      py      :     0.110119
      dz2     :     0.071933  d :     0.242898
      dxz     :     0.045014
      dyz     :     0.056462
      dx2y2   :     0.015202
      dxy     :     0.054287
 39 H s       :     0.610634  s :     0.610634
      pz      :     0.085750  p :     0.330695
      px      :     0.142917
      py      :     0.102029
      dz2     :     0.022609  d :     0.247413
      dxz     :     0.050096
      dyz     :     0.042963
      dx2y2   :     0.069649
      dxy     :     0.062095


                      *****************************
                      * MAYER POPULATION ANALYSIS *
                      *****************************

  NA   - Mulliken gross atomic population
  ZA   - Total nuclear charge
  QA   - Mulliken gross atomic charge
  VA   - Mayer's total valence
  BVA  - Mayer's bonded valence
  FA   - Mayer's free valence

  ATOM       NA         ZA         QA         VA         BVA        FA
  0 C      6.5745     6.0000    -0.5745     4.9994     4.9994    -0.0000
  1 C      5.2385     6.0000     0.7615     2.8527     2.8527    -0.0000
  2 Cl    17.5430    17.0000    -0.5430     0.4078     0.4078    -0.0000
  3 C      6.7169     6.0000    -0.7169     0.8661     0.8661     0.0000
  4 H      0.5885     1.0000     0.4115     0.7896     0.7896     0.0000
  5 C      4.5323     6.0000     1.4677    -0.2051    -0.2051    -0.0000
  6 C      4.0678     6.0000     1.9322     0.5120     0.5120    -0.0000
  7 C      5.8030     6.0000     0.1970     1.8201     1.8201     0.0000
  8 C      7.7083     6.0000    -1.7083     1.8529     1.8529     0.0000
  9 H      1.0147     1.0000    -0.0147     1.5219     1.5219     0.0000
 10 S     13.8815    16.0000     2.1185     4.3717     4.3717    -0.0000
 11 O      8.9573     8.0000    -0.9573     1.3534     1.3534    -0.0000
 12 O      8.9677     8.0000    -0.9677     1.4754     1.4754    -0.0000
 13 N      7.6484     7.0000    -0.6484     2.8592     2.8592    -0.0000
 14 H      0.8533     1.0000     0.1467     1.0555     1.0555    -0.0000
 15 H      0.8510     1.0000     0.1490     1.0763     1.0763     0.0000
 16 N      7.7254     7.0000    -0.7254     2.1182     2.1182     0.0000
 17 C      5.6459     6.0000     0.3541     2.7640     2.7640    -0.0000
 18 N      7.0789     7.0000    -0.0789     2.7229     2.7229     0.0000
 19 C      7.0391     6.0000    -1.0391     3.6966     3.6966    -0.0000
 20 H      1.1257     1.0000    -0.1257     1.2237     1.2237    -0.0000
 21 H      0.6533     1.0000     0.3467     0.8290     0.8290    -0.0000
 22 H      0.6206     1.0000     0.3794     0.9177     0.9177    -0.0000
 23 H      0.6583     1.0000     0.3417     1.0001     1.0001    -0.0000
 24 O      9.2495     8.0000    -1.2495     0.5466     0.5466     0.0000
 25 C      4.6713     6.0000     1.3287     0.4364     0.4364     0.0000
 26 C      4.7359     6.0000     1.2641     1.7700     1.7700    -0.0000
 27 C      6.9620     6.0000    -0.9620     3.6292     3.6292     0.0000
 28 C      7.0095     6.0000    -1.0095     3.3314     3.3314    -0.0000
 29 H      1.0399     1.0000    -0.0399     1.4674     1.4674    -0.0000
 30 C      6.3059     6.0000    -0.3059     2.9491     2.9491     0.0000
 31 H      0.3121     1.0000     0.6879     0.2693     0.2693     0.0000
 32 C      6.6801     6.0000    -0.6801     2.9911     2.9911    -0.0000
 33 H      0.4705     1.0000     0.5295     0.6460     0.6460     0.0000
 34 C      7.4550     6.0000    -1.4550     2.1225     2.1225    -0.0000
 35 H      0.6637     1.0000     0.3363     0.8378     0.8378     0.0000
 36 H      0.8282     1.0000     0.1718     1.1033     1.1033    -0.0000
 37 H      0.8478     1.0000     0.1522     1.0668     1.0668     0.0000
 38 H      0.6806     1.0000     0.3194     0.9457     0.9457     0.0000
 39 H      0.5939     1.0000     0.4061     0.8482     0.8482     0.0000

  Mayer bond orders larger than 0.100000
B(  0-C ,  1-C ) :   1.5805 B(  0-C ,  2-Cl) :   0.9315 B(  0-C ,  3-C ) :  -0.1313 
B(  0-C ,  5-C ) :  -0.5723 B(  0-C ,  6-C ) :   0.3352 B(  0-C ,  7-C ) :  -0.1280 
B(  0-C ,  8-C ) :   1.2759 B(  0-C ,  9-H ) :  -0.1549 B(  0-C , 10-S ) :   0.7865 
B(  0-C , 11-O ) :   0.3323 B(  0-C , 12-O ) :   0.3524 B(  0-C , 25-C ) :  -0.1398 
B(  0-C , 26-C ) :   0.2354 B(  0-C , 28-C ) :   0.1338 B(  0-C , 29-H ) :  -0.4194 
B(  0-C , 33-H ) :   0.4197 B(  1-C ,  2-Cl) :  -0.1247 B(  1-C ,  3-C ) :   1.4097 
B(  1-C ,  4-H ) :  -0.1337 B(  1-C ,  5-C ) :   0.3295 B(  1-C ,  6-C ) :  -0.3320 
B(  1-C ,  7-C ) :   0.2215 B(  1-C ,  8-C ) :   0.1448 B(  1-C , 12-O ) :  -0.1144 
B(  1-C , 18-N ) :  -0.1330 B(  1-C , 26-C ) :   0.3217 B(  1-C , 29-H ) :   0.3489 
B(  1-C , 30-C ) :  -0.1493 B(  1-C , 33-H ) :  -0.1863 B(  1-C , 34-C ) :  -0.1124 
B(  2-Cl,  3-C ) :  -0.2048 B(  2-Cl,  5-C ) :  -0.2516 B(  3-C ,  4-H ) :   0.6597 
B(  3-C ,  5-C ) :  -0.6276 B(  3-C ,  6-C ) :   0.2967 B(  3-C ,  8-C ) :  -0.1710 
B(  3-C , 12-O ) :  -0.1193 B(  3-C , 16-N ) :  -0.1560 B(  3-C , 25-C ) :   0.1718 
B(  3-C , 26-C ) :   0.2575 B(  3-C , 29-H ) :  -0.3544 B(  3-C , 30-C ) :  -0.2680 
B(  3-C , 33-H ) :   0.1540 B(  4-H ,  6-C ) :   0.2254 B(  4-H ,  8-C ) :   0.1594 
B(  4-H , 29-H ) :   0.1661 B(  5-C ,  6-C ) :   1.1632 B(  5-C ,  7-C ) :   0.5603 
B(  5-C ,  8-C ) :  -1.0271 B(  5-C , 16-N ) :   0.6762 B(  5-C , 17-C ) :  -0.2773 
B(  5-C , 18-N ) :  -0.1935 B(  5-C , 19-C ) :   0.1117 B(  5-C , 20-H ) :  -0.1072 
B(  5-C , 25-C ) :   0.1371 B(  5-C , 26-C ) :  -0.1037 B(  5-C , 29-H ) :  -0.1375 
B(  5-C , 30-C ) :   0.2545 B(  5-C , 33-H ) :  -0.1668 B(  5-C , 34-C ) :   0.1410 
B(  6-C ,  8-C ) :  -0.5801 B(  6-C ,  9-H ) :  -0.2941 B(  6-C , 11-O ) :  -0.1418 
B(  6-C , 16-N ) :  -0.4267 B(  6-C , 17-C ) :   0.2052 B(  6-C , 19-C ) :  -0.1055 
B(  6-C , 24-O ) :   0.1784 B(  6-C , 25-C ) :   0.2781 B(  6-C , 26-C ) :  -0.5564 
B(  6-C , 28-C ) :   0.1147 B(  6-C , 29-H ) :   0.3838 B(  6-C , 33-H ) :  -0.1292 
B(  6-C , 34-C ) :  -0.2067 B(  6-C , 35-H ) :   0.1709 B(  7-C ,  8-C ) :   0.2685 
B(  7-C , 16-N ) :   0.2793 B(  7-C , 17-C ) :  -0.3483 B(  7-C , 18-N ) :   1.1151 
B(  7-C , 24-O ) :   0.2481 B(  7-C , 25-C ) :  -0.8655 B(  7-C , 26-C ) :   0.4294 
B(  7-C , 28-C ) :  -0.1234 B(  7-C , 34-C ) :   0.3264 B(  8-C ,  9-H ) :   1.7409 
B(  8-C , 10-S ) :   0.1392 B(  8-C , 11-O ) :  -0.2360 B(  8-C , 18-N ) :   0.1671 
B(  8-C , 26-C ) :  -0.2772 B(  8-C , 28-C ) :  -0.1548 B(  8-C , 29-H ) :   0.1551 
B(  8-C , 30-C ) :   0.2434 B(  8-C , 33-H ) :  -0.2145 B(  8-C , 35-H ) :   0.1278 
B(  9-H , 24-O ) :   0.1185 B( 10-S , 11-O ) :   1.2124 B( 10-S , 12-O ) :   1.2917 
B( 10-S , 13-N ) :   0.9083 B( 10-S , 33-H ) :   0.1162 B( 13-N , 14-H ) :   0.9430 
B( 13-N , 15-H ) :   0.9345 B( 16-N , 17-C ) :   0.5441 B( 16-N , 20-H ) :   1.2687 
B( 17-C , 18-N ) :   0.8508 B( 17-C , 19-C ) :   0.7836 B( 17-C , 21-H ) :   0.9191 
B( 17-C , 25-C ) :  -0.1308 B( 18-N , 24-O ) :  -0.1111 B( 18-N , 25-C ) :   0.8015 
B( 18-N , 30-C ) :   0.1414 B( 18-N , 34-C ) :   0.4039 B( 19-C , 22-H ) :   0.8549 
B( 19-C , 23-H ) :   0.9757 B( 19-C , 36-H ) :   1.0463 B( 24-O , 26-C ) :  -0.1865 
B( 25-C , 26-C ) :   0.6219 B( 25-C , 27-C ) :   0.2580 B( 25-C , 28-C ) :   0.1798 
B( 25-C , 29-H ) :   0.2077 B( 25-C , 30-C ) :  -0.2793 B( 25-C , 32-C ) :  -0.2069 
B( 25-C , 34-C ) :  -0.5951 B( 26-C , 27-C ) :   0.2401 B( 26-C , 28-C ) :   0.4924 
B( 26-C , 29-H ) :  -0.2853 B( 26-C , 30-C ) :   0.3040 B( 26-C , 32-C ) :   0.3122 
B( 26-C , 33-H ) :   0.2190 B( 27-C , 28-C ) :   0.1898 B( 27-C , 37-H ) :   1.0973 
B( 27-C , 38-H ) :   0.9709 B( 27-C , 39-H ) :   0.7802 B( 28-C , 29-H ) :   1.7150 
B( 28-C , 30-C ) :   1.1059 B( 28-C , 32-C ) :  -0.2959 B( 28-C , 33-H ) :  -0.1065 
B( 29-H , 30-C ) :  -0.1268 B( 30-C , 31-H ) :   0.4198 B( 30-C , 32-C ) :   1.1850 
B( 30-C , 33-H ) :  -0.1199 B( 30-C , 34-C ) :   0.3066 B( 32-C , 33-H ) :   0.6554 
B( 32-C , 34-C ) :   1.2393 B( 34-C , 35-H ) :   0.7505 

-------
TIMINGS
-------

Total SCF time: 0 days 0 hours 20 min 22 sec 

Total time                  ....    1222.146 sec
Sum of individual times     ....    1215.437 sec  ( 99.5%)

Fock matrix formation       ....    1191.502 sec  ( 97.5%)
  Split-RI-J                ....      66.916 sec  (  5.6% of F)
  Chain of spheres X        ....    1013.987 sec  ( 85.1% of F)
  XC integration            ....     106.866 sec  (  9.0% of F)
    Basis function eval.    ....      15.603 sec  ( 14.6% of XC)
    Density eval.           ....      55.384 sec  ( 51.8% of XC)
    XC-Functional eval.     ....       0.610 sec  (  0.6% of XC)
    XC-Potential eval.      ....      31.769 sec  ( 29.7% of XC)
Diagonalization             ....       2.964 sec  (  0.2%)
Density matrix formation    ....       0.603 sec  (  0.0%)
Population analysis         ....       0.542 sec  (  0.0%)
Initial guess               ....       4.566 sec  (  0.4%)
Orbital Transformation      ....       0.000 sec  (  0.0%)
Orbital Orthonormalization  ....       0.000 sec  (  0.0%)
DIIS solution               ....       2.096 sec  (  0.2%)
SOSCF solution              ....       5.713 sec  (  0.5%)
Grid generation             ....       7.451 sec  (  0.6%)

Maximum memory used throughout the entire SCF-calculation: 483.8 MB


           ************************************************************
           *        Program running with 8 parallel MPI-processes     *
           *              working on a common directory               *
           ************************************************************

------------------------------------------------------------------------------
                                ORCA  MP2 
------------------------------------------------------------------------------

Freezing NCore=64 chemical core electrons

   <<< Use J-auxbasis for calculation of Separable RI-J derivative contributions (Dim=1356) >>> 


-------------
RI-MP2 ENERGY
-------------
Dimension of the basis                    ... 1480
Memory devoted to MP2                     ... 3000 MB   
Data format for buffers                   ... DOUBLE
Compression type for matrix containers    ... UNCOMPRESSED
Scaling for aa/bb pairs                   ...   2.500e-01
Scaling for ab pairs                      ...   5.300e-01
Overall scaling of the MP2 energy         ...   1.000e+00
Calculating two index integrals           ... done (    0.122 sec)
Cholesky decomposition of V**-1           ... done (    1.108 sec)

-----------------
RI-TRANSFORMATION (AUX index driven)
-----------------

Dimension of the orbital-basis         ... 1480
Dimension of the aux-basis             ... 3362
Transformation of internal/external MOs...   32-  94 to   95-1479
Number Format for Storage              ... Double (8 Byte)
Integral mode                          ... Direct

First Phase: integral generation and transformation of MO indices
  Aux angular momentum 0               ... done (    2.434 sec)
  Aux angular momentum 1               ... done (    4.691 sec)
  Aux angular momentum 2               ... done (    6.538 sec)
  Aux angular momentum 3               ... done (    6.113 sec)
  Aux angular momentum 4               ... done (    3.163 sec)
Closing buffer VIA ( 2.19 GB; CompressionRatio= 1.00)
  Phase 1 completed in    23.305 sec
Second Phase: sorting and transformation of aux index

IA-Transformation
Memory available                       ... 2819 MB 
Max. # MO pairs treated in a batch     ... 8    
# of internal orbitals                 ... 63
# batches for internal orbitals        ... 1
Closing buffer IAV ( 2.19 GB; CompressionRatio= 1.00)
(ia|v) transformation done in     4.667 sec

  Phase 2 completed in     5.184 sec
RI-Integral transformation completed in    28.493 sec
Opening buffers                              ... done

Starting loop over batches of integrals:

Operator 0  - window                       ... ( 32- 94)x( 95-1479)
Operator 0  - Memory available             ...  3000 MB
Operator 0  - Memory needed per MO         ...  35.5 MB
Operator 0  - Number of orbitals per batch ... 8
Operator 0  - Number of batches            ... 1

OPERATOR  0   PASS   0:  MOs    32 ...   39 +   40 ...   47 +   48 ...   55 +   56 ...   63
                            +   64 ...   71 +   72 ...   79 +   80 ...   87 +   88 ...   94
  Reading integrals       ... ok
  Internal MO  34
  Internal MO  37
Time spent in pair loops =     8.292 sec
Deleting buffer (Ka|jb)[aa] ...done

-----------------------------------------------
 RI-MP2 CORRELATION ENERGY:     -2.229568026 Eh
-----------------------------------------------


-------
TIMINGS
-------

Total time                :  127.171 sec
Integral trafo            :   28.518 sec ( 22.4%)
I/O of integrals          :    0.175 sec (  0.1%)
K(i,j) Operators          :    6.972 sec (  5.5%)
T(i,j) pair energies      :    0.774 sec (  0.6%)
V-calculation             :    0.122 sec (  0.1%)
V**(-1/2)                 :    1.108 sec (  0.9%)
Gamma(ia|P)               :    0.000 sec (  0.0%)
Gamma-Trafo               :    0.000 sec (  0.0%)
D(virtual)                :    0.000 sec (  0.0%)
D(internal)               :    0.000 sec (  0.0%)
W(virtual)                :    0.000 sec (  0.0%)
W(internal)               :    0.000 sec (  0.0%)
L(virtual)                :    0.000 sec (  0.0%)
L(internal)               :    0.000 sec (  0.0%)
G(D)                      :    0.000 sec (  0.0%)
G(Z)                      :    0.000 sec (  0.0%)
Z-Vector Solution         :    0.000 sec (  0.0%)
3-Index Derivative        :    0.000 sec (  0.0%)
2-Index Derivative        :    0.000 sec (  0.0%)
Separable Gradient (RIJ)  :    0.000 sec (  0.0%)
Separable Gradient (COSX) :    0.000 sec (  0.0%)


---------------------------------------
MP2 TOTAL ENERGY:    -1865.671710916 Eh
---------------------------------------

Maximum memory used throughout the entire MP2-calculation: 580.2 MB


-------------------------------------------------------------------------------
                          DFT DISPERSION CORRECTION                            
                                                                               
                              DFTD3 V3.1  Rev 1                                
                          USING Becke-Johnson damping                          
-------------------------------------------------------------------------------
The DSD-PBEP86 functional is recognized
Active option DFTDOPT                   ...         4   

molecular C6(AA) [au] = 22119.677617 


            DFT-D V3
 parameters
 s6 scaling factor         :     0.4180 
 a1 scaling factor         :     0.0000 
 s8 scaling factor         :     0.0000 
 a2 scaling factor         :     5.6500 
 ad hoc parameters k1-k3   :    16.0000     1.3333    -4.0000 

 Edisp/kcal,au: -21.785375056858  -0.034717201307 
 E6   /kcal   : -21.785375057 
 E8   /kcal   :  -0.000000000 
 % E8         :   0.000000000 

-------------------------   ----------------
Dispersion correction           -0.034717201
-------------------------   ----------------


-------------------------   --------------------
FINAL SINGLE POINT ENERGY     -1865.706428117124
-------------------------   --------------------


                            ***************************************
                            *     ORCA property calculations      *
                            ***************************************


  WARNING: The energy has been calculated at the MP2 level but the densities
           used in the property calculations are still SCF densities
           MP2 response densities have not been calculated 
           use %mp2 Density relaxed end
           or  %mp2 Density unrelaxed end

                                    ---------------------
                                    Active property flags
                                    ---------------------
   (+) Dipole Moment


------------------------------------------------------------------------------
                       ORCA ELECTRIC PROPERTIES CALCULATION
------------------------------------------------------------------------------

Dipole Moment Calculation                       ... on
Quadrupole Moment Calculation                   ... off
Polarizability Calculation                      ... off
GBWName                                         ... HA.29.avtz.gbw
Electron density                                ... HA.29.avtz.scfp
The origin for moment calculation is the CENTER OF MASS  = ( 0.192542,  0.403129 -5.899344)

-------------
DIPOLE MOMENT
-------------
                                X             Y             Z
Electronic contribution:    -24.24022      -2.25528      22.82544
Nuclear contribution   :     23.15541       2.39591     -26.26035
                        -----------------------------------------
Total Dipole Moment    :     -1.08481       0.14062      -3.43491
                        -----------------------------------------
Magnitude (a.u.)       :      3.60488
Magnitude (Debye)      :      9.16289



--------------------
Rotational spectrum 
--------------------
 
Rotational constants in cm-1:     0.016716     0.003449     0.003100 
Rotational constants in MHz :   501.130775   103.384797    92.945724 

 Dipole components along the rotational axes: 
x,y,z [a.u.] :    -1.838094     3.061051     0.496550 
x,y,z [Debye]:    -4.672063     7.780574     1.262129 

 

Timings for individual modules:

Sum of individual times         ...     1358.205 sec (=  22.637 min)
GTO integral calculation        ...        5.919 sec (=   0.099 min)   0.4 %
SCF iterations                  ...     1223.581 sec (=  20.393 min)  90.1 %
MP2 module                      ...      128.705 sec (=   2.145 min)   9.5 %
                             ****ORCA TERMINATED NORMALLY****
TOTAL RUN TIME: 0 days 0 hours 22 minutes 41 seconds 945 msec
