
                                 *****************
                                 * O   R   C   A *
                                 *****************

                                            #,                                       
                                            ###                                      
                                            ####                                     
                                            #####                                    
                                            ######                                   
                                           ########,                                 
                                     ,,################,,,,,                         
                               ,,#################################,,                 
                          ,,##########################################,,             
                       ,#########################################, ''#####,          
                    ,#############################################,,   '####,        
                  ,##################################################,,,,####,       
                ,###########''''           ''''###############################       
              ,#####''   ,,,,##########,,,,          '''####'''          '####       
            ,##' ,,,,###########################,,,                        '##       
           ' ,,###''''                  '''############,,,                           
         ,,##''                                '''############,,,,        ,,,,,,###''
      ,#''                                            '''#######################'''  
     '                                                          ''''####''''         
             ,#######,   #######,   ,#######,      ##                                
            ,#'     '#,  ##    ##  ,#'     '#,    #''#        ######   ,####,        
            ##       ##  ##   ,#'  ##            #'  '#       #        #'  '#        
            ##       ##  #######   ##           ,######,      #####,   #    #        
            '#,     ,#'  ##    ##  '#,     ,#' ,#      #,         ##   #,  ,#        
             '#######'   ##     ##  '#######'  #'      '#     #####' # '####'        



                  #######################################################
                  #                        -***-                        #
                  #          Department of theory and spectroscopy      #
                  #    Directorship and core code : Frank Neese         #
                  #        Max Planck Institute fuer Kohlenforschung    #
                  #                Kaiser Wilhelm Platz 1               #
                  #                 D-45470 Muelheim/Ruhr               #
                  #                      Germany                        #
                  #                                                     #
                  #                  All rights reserved                #
                  #                        -***-                        #
                  #######################################################


                         Program Version 5.0.3 -  RELEASE  -


 With contributions from (in alphabetic order):
   Daniel Aravena         : Magnetic Suceptibility
   Michael Atanasov       : Ab Initio Ligand Field Theory (pilot matlab implementation)
   Alexander A. Auer      : GIAO ZORA, VPT2 properties, NMR spectrum
   Ute Becker             : Parallelization
   Giovanni Bistoni       : ED, misc. LED, open-shell LED, HFLD
   Martin Brehm           : Molecular dynamics
   Dmytro Bykov           : SCF Hessian
   Vijay G. Chilkuri      : MRCI spin determinant printing, contributions to CSF-ICE
   Dipayan Datta          : RHF DLPNO-CCSD density
   Achintya Kumar Dutta   : EOM-CC, STEOM-CC
   Dmitry Ganyushin       : Spin-Orbit,Spin-Spin,Magnetic field MRCI
   Miquel Garcia          : C-PCM and meta-GGA Hessian, CC/C-PCM, Gaussian charge scheme
   Yang Guo               : DLPNO-NEVPT2, F12-NEVPT2, CIM, IAO-localization
   Andreas Hansen         : Spin unrestricted coupled pair/coupled cluster methods
   Benjamin Helmich-Paris : MC-RPA, TRAH-SCF, COSX integrals
   Lee Huntington         : MR-EOM, pCC
   Robert Izsak           : Overlap fitted RIJCOSX, COSX-SCS-MP3, EOM
   Marcus Kettner         : VPT2
   Christian Kollmar      : KDIIS, OOCD, Brueckner-CCSD(T), CCSD density, CASPT2, CASPT2-K
   Simone Kossmann        : Meta GGA functionals, TD-DFT gradient, OOMP2, MP2 Hessian
   Martin Krupicka        : Initial AUTO-CI
   Lucas Lang             : DCDCAS
   Marvin Lechner         : AUTO-CI (C++ implementation), FIC-MRCC
   Dagmar Lenk            : GEPOL surface, SMD
   Dimitrios Liakos       : Extrapolation schemes; Compound Job, initial MDCI parallelization
   Dimitrios Manganas     : Further ROCIS development; embedding schemes
   Dimitrios Pantazis     : SARC Basis sets
   Anastasios Papadopoulos: AUTO-CI, single reference methods and gradients
   Taras Petrenko         : DFT Hessian,TD-DFT gradient, ASA, ECA, R-Raman, ABS, FL, XAS/XES, NRVS
   Peter Pinski           : DLPNO-MP2, DLPNO-MP2 Gradient
   Christoph Reimann      : Effective Core Potentials
   Marius Retegan         : Local ZFS, SOC
   Christoph Riplinger    : Optimizer, TS searches, QM/MM, DLPNO-CCSD(T), (RO)-DLPNO pert. Triples
   Tobias Risthaus        : Range-separated hybrids, TD-DFT gradient, RPA, STAB
   Michael Roemelt        : Original ROCIS implementation
   Masaaki Saitow         : Open-shell DLPNO-CCSD energy and density
   Barbara Sandhoefer     : DKH picture change effects
   Avijit Sen             : IP-ROCIS
   Kantharuban Sivalingam : CASSCF convergence, NEVPT2, FIC-MRCI
   Bernardo de Souza      : ESD, SOC TD-DFT
   Georgi Stoychev        : AutoAux, RI-MP2 NMR, DLPNO-MP2 response
   Willem Van den Heuvel  : Paramagnetic NMR
   Boris Wezisla          : Elementary symmetry handling
   Frank Wennmohs         : Technical directorship


 We gratefully acknowledge several colleagues who have allowed us to
 interface, adapt or use parts of their codes:
   Stefan Grimme, W. Hujo, H. Kruse, P. Pracht,  : VdW corrections, initial TS optimization,
                  C. Bannwarth, S. Ehlert          DFT functionals, gCP, sTDA/sTD-DF
   Ed Valeev, F. Pavosevic, A. Kumar             : LibInt (2-el integral package), F12 methods
   Garnet Chan, S. Sharma, J. Yang, R. Olivares  : DMRG
   Ulf Ekstrom                                   : XCFun DFT Library
   Mihaly Kallay                                 : mrcc  (arbitrary order and MRCC methods)
   Jiri Pittner, Ondrej Demel                    : Mk-CCSD
   Frank Weinhold                                : gennbo (NPA and NBO analysis)
   Christopher J. Cramer and Donald G. Truhlar   : smd solvation model
   Lars Goerigk                                  : TD-DFT with DH, B97 family of functionals
   V. Asgeirsson, H. Jonsson                     : NEB implementation
   FAccTs GmbH                                   : IRC, NEB, NEB-TS, DLPNO-Multilevel, CI-OPT
                                                   MM, QMMM, 2- and 3-layer-ONIOM, Crystal-QMMM,
                                                   LR-CPCM, SF, NACMEs, symmetry and pop. for TD-DFT,
                                                   nearIR, NL-DFT gradient (VV10), updates on ESD,
                                                   ML-optimized integration grids
   S Lehtola, MJT Oliveira, MAL Marques          : LibXC Library
   Liviu Ungur et al                             : ANISO software


 Your calculation uses the libint2 library for the computation of 2-el integrals
 For citations please refer to: http://libint.valeyev.net

 Your ORCA version has been built with support for libXC version: 5.1.0
 For citations please refer to: https://tddft.org/programs/libxc/

 This ORCA versions uses:
   CBLAS   interface :  Fast vector & matrix operations
   LAPACKE interface :  Fast linear algebra routines
   SCALAPACK package :  Parallel linear algebra routines
   Shared memory     :  Shared parallel matrices
   BLAS/LAPACK       :  OpenBLAS 0.3.15  USE64BITINT DYNAMIC_ARCH NO_AFFINITY SkylakeX SINGLE_THREADED
        Core in use  :  SkylakeX
   Copyright (c) 2011-2014, The OpenBLAS Project


Your calculation utilizes the atom-pairwise dispersion correction
with the Becke-Johnson damping scheme (D3BJ)
Cite in your paper:
S.Grimme, S.Ehrlich, L.Goerigk, J Comput Chem, (2011), 32, 1456–1465 
S.Grimme, J.Antony, S.Ehrlich and H.Krieg, J.Chem.Phys., 132, (2010), 154104 
   

================================================================================

----- Orbital basis set information -----
Your calculation utilizes the basis: aug-cc-pVTZ 
    H, B-Ne : Obtained from the ccRepo (grant-hill.group.shef.ac.uk/ccrepo) Feb. 2017
              R. A. Kendall, T. H. Dunning, Jr., R. J. Harrison, J. Chem. Phys. 96, 6796 (1992)
         He : Obtained from the ccRepo (grant-hill.group.shef.ac.uk/ccrepo) Feb. 2017
              D. E. Woon, T. H. Dunning, Jr., J. Chem. Phys. 100, 2975 (1994)
  Li-Be, Na : Obtained from the ccRepo (grant-hill.group.shef.ac.uk/ccrepo) Feb. 2017
              B. P. Prascher, D. E. Woon, K. A. Peterson, T. H. Dunning, Jr., A. K. Wilson, Theor. Chem. Acc. 128, 69 (2011)
         Mg : Obtained from the Peterson Research Group Website (tyr0.chem.wsu.edu/~kipeters) Feb. 2017
              B. P. Prascher, D. E. Woon, K. A. Peterson, T. H. Dunning, Jr., A. K. Wilson, Theor. Chem. Acc. 128, 69 (2011)
      Al-Ar : Obtained from the ccRepo (grant-hill.group.shef.ac.uk/ccrepo) Feb. 2017
              D. E. Woon, T. H. Dunning, Jr., J. Chem. Phys. 98, 1358 (1993)
      Sc-Zn : Obtained from the ccRepo (grant-hill.group.shef.ac.uk/ccrepo) Feb. 2017
              N. B. Balabanov, K. A. Peterson, J. Chem. Phys. 123, 064107 (2005)
              N. B. Balabanov, K. A. Peterson, J. Chem. Phys. 125, 074110 (2006)
      Ga-Kr : Obtained from the ccRepo (grant-hill.group.shef.ac.uk/ccrepo) Feb. 2017
              A. K. Wilson, D. E. Woon, K. A. Peterson, T. H. Dunning, Jr., J. Chem. Phys. 110, 7667 (1999)
     Ag, Au : Obtained from the Peterson Research Group Website (tyr0.chem.wsu.edu/~kipeters) Feb. 2017
              K. A. Peterson, C. Puzzarini, Theor. Chem. Acc. 114, 283 (2005)

----- AuxJ basis set information -----
Your calculation utilizes the auxiliary basis: def2/J
   F. Weigend, Phys. Chem. Chem. Phys. 8, 1057 (2006).

----- AuxC basis set information -----
Your calculation utilizes the auxiliary basis: aug-cc-pVTZ/C 
  H-He, B-F, Al-Ar, Ga-Kr : Obtained from the EMSL Basis Set Exchange (bse.pnl.gov) Feb. 2017
                            F. Weigend, A. Kohn, C. Hattig, J. Chem. Phys. 116, 3175 (2002)
                   Be, Mg : Obtained from the TURBOMOLE 7.0 basis set library
                            C. Haettig, Phys. Chem. Chem. Phys. 7, 59 (2005)
                       Ne : Obtained from the EMSL Basis Set Exchange (bse.pnl.gov) Feb. 2017
                            C. Haettig, Phys. Chem. Chem. Phys. 7, 59 (2005)
                            F. Weigend, A. Kohn, C. Hattig, J. Chem. Phys. 116, 3175 (2002)
                    Sc-Zn : Obtained from the EMSL Basis Set Exchange (bse.pnl.gov) Feb. 2017
                            J. G. Hill, J. A. Platts, J. Chem. Phys. 128, 044104 (2008)

================================================================================
                                        WARNINGS
                       Please study these warnings very carefully!
================================================================================


WARNING: No MP2 level density has been requested!
         To caclulate MP2 level properties use
         %mp2 Density relaxed end
         or
         %mp2 Density unrelaxed end
         Otherwise for double-hybrid DFT only the energy is correct!

WARNING: There are different parametrizations of Gershom Martin's DSD-DFs
         for use with and without D3(BJ)!
         You are using the D3(BJ) parametrized version,
         consistent with the GMTKN55 benchmark (L. Goerigk et al., PCCP 2017, 19, 32184)

WARNING: The frozen-core approximation is turned on by default for 
         the MP2 part of double-hybrid DFT.

INFO   : the flag for use of the SHARK integral package has been found!

================================================================================
                                       INPUT FILE
================================================================================
NAME = HA.33.avtz.com
|  1> !PAL8
|  2> !RI-DSD-PBEP86 D3BJ aug-cc-pVTZ aug-cc-pVTZ/C TightSCF
|  3> %maxcore 3000
|  4> 
|  5> 
|  6> * xyz 0 1
|  7> C -1.6471560889  1.0893216627 -0.919083703
|  8> C -2.7758045493  0.5313510089 -1.5557606689
|  9> C -4.137190825  0.4105916403 -0.8953096942
| 10> C -2.6795690248  0.0702562886 -2.8586090947
| 11> H -3.5509506231 -0.3562669409 -3.3442744312
| 12> C -1.4631916794  0.1400546175 -3.5589334758
| 13> C -0.3438763498  0.6901904386 -2.9170840404
| 14> C  0.9356185741  0.8553084482 -3.6663068331
| 15> C -0.4464628294  1.1644134009 -1.6133702641
| 16> S -1.641152899  1.7783959562  0.7442479513
| 17> O -0.3685815111  2.4611974599  0.8849740738
| 18> O -2.9117740693  2.4413042963  0.9495570245
| 19> N -1.580106311  0.5202978096  1.8246675109
| 20> H -0.705546714  0.0050660903  1.7741150692
| 21> H -2.4035424485 -0.0736909817  1.7945391012
| 22> N -1.3583965482 -0.2777273908 -4.8676100178
| 23> C -0.0438105371 -0.6930274009 -5.3294541926
| 24> N  0.906608124  0.3324026657 -4.9368239541
| 25> H -2.1152863024 -0.8612653507 -5.210450313
| 26> F -4.9132898894 -0.4731842147 -1.5511122484
| 27> F -4.801723025  1.5630691873 -0.8707110185
| 28> F -4.0434164417 -0.0490311319  0.3697318385
| 29> H  1.7964379618  0.3625919145 -5.4231282327
| 30> C -0.0418724778 -0.8552154479 -6.8508640078
| 31> C -1.0690550948 -1.8645615013 -7.3031771682
| 32> C -0.8229028908 -3.2362138653 -7.1766589349
| 33> H  0.1390862589 -3.5758784017 -6.7975311252
| 34> C -1.7913201497 -4.1687328332 -7.5411368579
| 35> H -1.5837022668 -5.2300407141 -7.441937561
| 36> C -3.022495058 -3.7404124343 -8.0378547987
| 37> H -3.7765823004 -4.4668234503 -8.325173566
| 38> C -3.2775928158 -2.3770086922 -8.1701992748
| 39> H -4.230899037 -2.0358214969 -8.5628957186
| 40> C -2.3057984065 -1.4455654746 -7.8038747566
| 41> H -2.5042190013 -0.3814815894 -7.9133894161
| 42> H  0.2246095896 -1.6599399696 -4.862566657
| 43> H  0.9622787364 -1.1729150265 -7.1575634552
| 44> H -0.2390512655  0.1271597031 -7.292319149
| 45> O  1.899841184  1.4479764842 -3.2198507894
| 46> H  0.4241970018  1.623015236 -1.1526641505
| 47> *
| 48> 
| 49>                          ****END OF INPUT****
================================================================================

                       ****************************
                       * Single Point Calculation *
                       ****************************

---------------------------------
CARTESIAN COORDINATES (ANGSTROEM)
---------------------------------
  C     -1.647156    1.089322   -0.919084
  C     -2.775805    0.531351   -1.555761
  C     -4.137191    0.410592   -0.895310
  C     -2.679569    0.070256   -2.858609
  H     -3.550951   -0.356267   -3.344274
  C     -1.463192    0.140055   -3.558933
  C     -0.343876    0.690190   -2.917084
  C      0.935619    0.855308   -3.666307
  C     -0.446463    1.164413   -1.613370
  S     -1.641153    1.778396    0.744248
  O     -0.368582    2.461197    0.884974
  O     -2.911774    2.441304    0.949557
  N     -1.580106    0.520298    1.824668
  H     -0.705547    0.005066    1.774115
  H     -2.403542   -0.073691    1.794539
  N     -1.358397   -0.277727   -4.867610
  C     -0.043811   -0.693027   -5.329454
  N      0.906608    0.332403   -4.936824
  H     -2.115286   -0.861265   -5.210450
  F     -4.913290   -0.473184   -1.551112
  F     -4.801723    1.563069   -0.870711
  F     -4.043416   -0.049031    0.369732
  H      1.796438    0.362592   -5.423128
  C     -0.041872   -0.855215   -6.850864
  C     -1.069055   -1.864562   -7.303177
  C     -0.822903   -3.236214   -7.176659
  H      0.139086   -3.575878   -6.797531
  C     -1.791320   -4.168733   -7.541137
  H     -1.583702   -5.230041   -7.441938
  C     -3.022495   -3.740412   -8.037855
  H     -3.776582   -4.466823   -8.325174
  C     -3.277593   -2.377009   -8.170199
  H     -4.230899   -2.035821   -8.562896
  C     -2.305798   -1.445565   -7.803875
  H     -2.504219   -0.381482   -7.913389
  H      0.224610   -1.659940   -4.862567
  H      0.962279   -1.172915   -7.157563
  H     -0.239051    0.127160   -7.292319
  O      1.899841    1.447976   -3.219851
  H      0.424197    1.623015   -1.152664

----------------------------
CARTESIAN COORDINATES (A.U.)
----------------------------
  NO LB      ZA    FRAG     MASS         X           Y           Z
   0 C     6.0000    0    12.011   -3.112674    2.058520   -1.736816
   1 C     6.0000    0    12.011   -5.245510    1.004108   -2.939962
   2 C     6.0000    0    12.011   -7.818158    0.775906   -1.691890
   3 C     6.0000    0    12.011   -5.063652    0.132765   -5.401988
   4 H     1.0000    0     1.008   -6.710324   -0.673247   -6.319763
   5 C     6.0000    0    12.011   -2.765032    0.264665   -6.725410
   6 C     6.0000    0    12.011   -0.649832    1.304271   -5.512490
   7 C     6.0000    0    12.011    1.768063    1.616299   -6.928316
   8 C     6.0000    0    12.011   -0.843692    2.200422   -3.048828
   9 S    16.0000    0    32.060   -3.101330    3.360681    1.406425
  10 O     8.0000    0    15.999   -0.696518    4.650989    1.672359
  11 O     8.0000    0    15.999   -5.502456    4.613397    1.794403
  12 N     7.0000    0    14.007   -2.985968    0.983220    3.448122
  13 H     1.0000    0     1.008   -1.333290    0.009574    3.352592
  14 H     1.0000    0     1.008   -4.542037   -0.139256    3.391187
  15 N     7.0000    0    14.007   -2.566997   -0.524829   -9.198450
  16 C     6.0000    0    12.011   -0.082790   -1.309632  -10.071209
  17 N     7.0000    0    14.007    1.713241    0.628150   -9.329245
  18 H     1.0000    0     1.008   -3.997312   -1.627556   -9.846324
  19 F     9.0000    0    18.998   -9.284772   -0.894189   -2.931177
  20 F     9.0000    0    18.998   -9.073941    2.953773   -1.645405
  21 F     9.0000    0    18.998   -7.640950   -0.092655    0.698692
  22 H     1.0000    0     1.008    3.394776    0.685199  -10.248227
  23 C     6.0000    0    12.011   -0.079128   -1.616123  -12.946257
  24 C     6.0000    0    12.011   -2.020221   -3.523511  -13.801005
  25 C     6.0000    0    12.011   -1.555061   -6.115558  -13.561920
  26 H     1.0000    0     1.008    0.262835   -6.757431  -12.845472
  27 C     6.0000    0    12.011   -3.385105   -7.877763  -14.250683
  28 H     1.0000    0     1.008   -2.992764   -9.883345  -14.063224
  29 C     6.0000    0    12.011   -5.711688   -7.068355  -15.189344
  30 H     1.0000    0     1.008   -7.136706   -8.441073  -15.732298
  31 C     6.0000    0    12.011   -6.193753   -4.491895  -15.439439
  32 H     1.0000    0     1.008   -7.995240   -3.847145  -16.181528
  33 C     6.0000    0    12.011   -4.357328   -2.731723  -14.747186
  34 H     1.0000    0     1.008   -4.732288   -0.720896  -14.954139
  35 H     1.0000    0     1.008    0.424451   -3.136832   -9.188919
  36 H     1.0000    0     1.008    1.818443   -2.216488  -13.525835
  37 H     1.0000    0     1.008   -0.451741    0.240297  -13.780486
  38 O     8.0000    0    15.999    3.590180    2.736279   -6.084636
  39 H     1.0000    0     1.008    0.801616    3.067054   -2.178220

--------------------------------
INTERNAL COORDINATES (ANGSTROEM)
--------------------------------
 C      0   0   0     0.000000000000     0.00000000     0.00000000
 C      1   0   0     1.410863620827     0.00000000     0.00000000
 C      2   1   0     1.517942985343   123.54424491     0.00000000
 C      2   1   3     1.385382127023   120.02918856   179.30793414
 H      4   2   1     1.084941829886   119.73750378   180.11319215
 C      4   2   1     1.405311314934   120.81366544     0.51005123
 C      6   4   2     1.402671353688   118.82579485   359.79867676
 C      7   6   4     1.491880025498   119.86726182   183.87263181
 C      1   2   3     1.389005724063   119.16537037   180.50384906
 S      1   2   3     1.800425397635   124.81546441   358.44814177
 O     10   1   2     1.451020217747   105.82040390   190.83895907
 O     10   1   2     1.447783630701   107.65759181   323.66212091
 N     10   1   2     1.659471017268   108.14670712    78.58430293
 H     13  10   1     1.016303971575   112.55800736    66.02443579
 H     13  10   1     1.015764479494   113.21612222   295.55208082
 N      6   4   2     1.377736592228   121.61019218   181.91285728
 C     16   6   4     1.453929338299   117.20142781   204.88500313
 N      8   7   6     1.374221895598   113.83367474   355.13587309
 H     16   6   4     1.015351229216   115.99584653   343.84270641
 F      3   2   1     1.346650106649   110.92843580   197.37266431
 F      3   2   1     1.330568538641   112.77178488    77.58336561
 F      3   2   1     1.349213403115   111.88337843   315.32237892
 H     18   8   7     1.014495136690   114.41495704   185.38287664
 C     17  16   6     1.530031550149   110.32143008   191.25387393
 C     24  17  16     1.509460426527   111.59132920   301.59948153
 C     25  24  17     1.399295529385   120.57526543   282.47697649
 H     26  25  24     1.088362539559   119.53164821   356.74955009
 C     26  25  24     1.392934947937   120.68247695   177.28880677
 H     28  26  25     1.085965056466   119.83104444   179.68915120
 C     28  26  25     1.394983416265   120.08025923   359.97190325
 H     30  28  26     1.085759000589   120.11735746   179.80080653
 C     30  28  26     1.393362727491   119.72544082     0.13585935
 H     32  30  28     1.086007343708   120.16331663   179.55381968
 C     32  30  28     1.395049997023   120.05597884   359.84292281
 H     34  32  30     1.087951610977   119.97029060   179.63338125
 H     17  16   6     1.106776061734   109.56186291    71.17771494
 H     24  17  16     1.096958173431   108.05171680   180.28256602
 H     24  17  16     1.094907783018   107.79312037    63.58967158
 O      8   7   6     1.216677295463   123.32008169   172.13739121
 H      9   1   2     1.086560770473   120.23484535   177.80861841

---------------------------
INTERNAL COORDINATES (A.U.)
---------------------------
 C      0   0   0     0.000000000000     0.00000000     0.00000000
 C      1   0   0     2.666145855675     0.00000000     0.00000000
 C      2   1   0     2.868496529205   123.54424491     0.00000000
 C      2   1   3     2.617992810902   120.02918856   179.30793414
 H      4   2   1     2.050242929720   119.73750378   180.11319215
 C      4   2   1     2.655653518127   120.81366544     0.51005123
 C      6   4   2     2.650664714368   118.82579485   359.79867676
 C      7   6   4     2.819244672860   119.86726182   183.87263181
 C      1   2   3     2.624840416927   119.16537037   180.50384906
 S      1   2   3     3.402310926086   124.81546441   358.44814177
 O     10   1   2     2.742030826325   105.82040390   190.83895907
 O     10   1   2     2.735914563200   107.65759181   323.66212091
 N     10   1   2     3.135945749815   108.14670712    78.58430293
 H     13  10   1     1.920536175094   112.55800736    66.02443579
 H     13  10   1     1.919516682809   113.21612222   295.55208082
 N      6   4   2     2.603544843992   121.61019218   181.91285728
 C     16   6   4     2.747528267458   117.20142781   204.88500313
 N      8   7   6     2.596903029918   113.83367474   355.13587309
 H     16   6   4     1.918735752958   115.99584653   343.84270641
 F      3   2   1     2.544799899783   110.92843580   197.37266431
 F      3   2   1     2.514410140444   112.77178488    77.58336561
 F      3   2   1     2.549643828102   111.88337843   315.32237892
 H     18   8   7     1.917117972538   114.41495704   185.38287664
 C     17  16   6     2.891340606040   110.32143008   191.25387393
 C     24  17  16     2.852466816129   111.59132920   301.59948153
 C     25  24  17     2.644285330959   120.57526543   282.47697649
 H     26  25  24     2.056707134186   119.53164821   356.74955009
 C     26  25  24     2.632265573968   120.68247695   177.28880677
 H     28  26  25     2.052176547730   119.83104444   179.68915120
 C     28  26  25     2.636136618102   120.08025923   359.97190325
 H     30  28  26     2.051787158553   120.11735746   179.80080653
 C     30  28  26     2.633073960171   119.72544082     0.13585935
 H     32  30  28     2.052256459036   120.16331663   179.55381968
 C     32  30  28     2.636262437501   120.05597884   359.84292281
 H     34  32  30     2.055930591706   119.97029060   179.63338125
 H     17  16   6     2.091503648256   109.56186291    71.17771494
 H     24  17  16     2.072950528151   108.05171680   180.28256602
 H     24  17  16     2.069075851803   107.79312037    63.58967158
 O      8   7   6     2.299186881785   123.32008169   172.13739121
 H      9   1   2     2.053302284056   120.23484535   177.80861841

---------------------
BASIS SET INFORMATION
---------------------
There are 6 groups of distinct atoms

 Group   1 Type C   : 19s6p3d2f contracted to 5s4p3d2f pattern {88111/3111/111/11}
 Group   2 Type H   : 6s3p2d contracted to 4s3p2d pattern {3111/111/11}
 Group   3 Type S   : 42s17p3d2f contracted to 6s5p3d2f pattern {131313111/77111/111/11}
 Group   4 Type O   : 19s6p3d2f contracted to 5s4p3d2f pattern {88111/3111/111/11}
 Group   5 Type N   : 19s6p3d2f contracted to 5s4p3d2f pattern {88111/3111/111/11}
 Group   6 Type F   : 19s6p3d2f contracted to 5s4p3d2f pattern {88111/3111/111/11}

Atom   0C    basis set group =>   1
Atom   1C    basis set group =>   1
Atom   2C    basis set group =>   1
Atom   3C    basis set group =>   1
Atom   4H    basis set group =>   2
Atom   5C    basis set group =>   1
Atom   6C    basis set group =>   1
Atom   7C    basis set group =>   1
Atom   8C    basis set group =>   1
Atom   9S    basis set group =>   3
Atom  10O    basis set group =>   4
Atom  11O    basis set group =>   4
Atom  12N    basis set group =>   5
Atom  13H    basis set group =>   2
Atom  14H    basis set group =>   2
Atom  15N    basis set group =>   5
Atom  16C    basis set group =>   1
Atom  17N    basis set group =>   5
Atom  18H    basis set group =>   2
Atom  19F    basis set group =>   6
Atom  20F    basis set group =>   6
Atom  21F    basis set group =>   6
Atom  22H    basis set group =>   2
Atom  23C    basis set group =>   1
Atom  24C    basis set group =>   1
Atom  25C    basis set group =>   1
Atom  26H    basis set group =>   2
Atom  27C    basis set group =>   1
Atom  28H    basis set group =>   2
Atom  29C    basis set group =>   1
Atom  30H    basis set group =>   2
Atom  31C    basis set group =>   1
Atom  32H    basis set group =>   2
Atom  33C    basis set group =>   1
Atom  34H    basis set group =>   2
Atom  35H    basis set group =>   2
Atom  36H    basis set group =>   2
Atom  37H    basis set group =>   2
Atom  38O    basis set group =>   4
Atom  39H    basis set group =>   2
---------------------------------
AUXILIARY/J BASIS SET INFORMATION
---------------------------------
There are 6 groups of distinct atoms

 Group   1 Type C   : 12s5p4d2f1g contracted to 6s4p3d1f1g pattern {711111/2111/211/2/1}
 Group   2 Type H   : 5s2p1d contracted to 3s1p1d pattern {311/2/1}
 Group   3 Type S   : 14s5p5d2f1g contracted to 8s4p3d1f1g pattern {71111111/2111/311/2/1}
 Group   4 Type O   : 12s5p4d2f1g contracted to 6s4p3d1f1g pattern {711111/2111/211/2/1}
 Group   5 Type N   : 12s5p4d2f1g contracted to 6s4p3d1f1g pattern {711111/2111/211/2/1}
 Group   6 Type F   : 12s5p4d2f1g contracted to 6s4p3d1f1g pattern {711111/2111/211/2/1}

Atom   0C    basis set group =>   1
Atom   1C    basis set group =>   1
Atom   2C    basis set group =>   1
Atom   3C    basis set group =>   1
Atom   4H    basis set group =>   2
Atom   5C    basis set group =>   1
Atom   6C    basis set group =>   1
Atom   7C    basis set group =>   1
Atom   8C    basis set group =>   1
Atom   9S    basis set group =>   3
Atom  10O    basis set group =>   4
Atom  11O    basis set group =>   4
Atom  12N    basis set group =>   5
Atom  13H    basis set group =>   2
Atom  14H    basis set group =>   2
Atom  15N    basis set group =>   5
Atom  16C    basis set group =>   1
Atom  17N    basis set group =>   5
Atom  18H    basis set group =>   2
Atom  19F    basis set group =>   6
Atom  20F    basis set group =>   6
Atom  21F    basis set group =>   6
Atom  22H    basis set group =>   2
Atom  23C    basis set group =>   1
Atom  24C    basis set group =>   1
Atom  25C    basis set group =>   1
Atom  26H    basis set group =>   2
Atom  27C    basis set group =>   1
Atom  28H    basis set group =>   2
Atom  29C    basis set group =>   1
Atom  30H    basis set group =>   2
Atom  31C    basis set group =>   1
Atom  32H    basis set group =>   2
Atom  33C    basis set group =>   1
Atom  34H    basis set group =>   2
Atom  35H    basis set group =>   2
Atom  36H    basis set group =>   2
Atom  37H    basis set group =>   2
Atom  38O    basis set group =>   4
Atom  39H    basis set group =>   2
---------------------------------
AUXILIARY/C BASIS SET INFORMATION
---------------------------------
There are 6 groups of distinct atoms

 Group   1 Type C   : 9s7p6d4f2g contracted to 9s7p6d4f2g pattern {111111111/1111111/111111/1111/11}
 Group   2 Type H   : 5s4p3d2f contracted to 5s4p3d2f pattern {11111/1111/111/11}
 Group   3 Type S   : 11s9p8d6f3g contracted to 11s9p8d6f3g pattern {11111111111/111111111/11111111/111111/111}
 Group   4 Type O   : 9s7p6d4f2g contracted to 9s7p6d4f2g pattern {111111111/1111111/111111/1111/11}
 Group   5 Type N   : 9s7p6d4f2g contracted to 9s7p6d4f2g pattern {111111111/1111111/111111/1111/11}
 Group   6 Type F   : 9s7p6d4f2g contracted to 9s7p6d4f2g pattern {111111111/1111111/111111/1111/11}

Atom   0C    basis set group =>   1
Atom   1C    basis set group =>   1
Atom   2C    basis set group =>   1
Atom   3C    basis set group =>   1
Atom   4H    basis set group =>   2
Atom   5C    basis set group =>   1
Atom   6C    basis set group =>   1
Atom   7C    basis set group =>   1
Atom   8C    basis set group =>   1
Atom   9S    basis set group =>   3
Atom  10O    basis set group =>   4
Atom  11O    basis set group =>   4
Atom  12N    basis set group =>   5
Atom  13H    basis set group =>   2
Atom  14H    basis set group =>   2
Atom  15N    basis set group =>   5
Atom  16C    basis set group =>   1
Atom  17N    basis set group =>   5
Atom  18H    basis set group =>   2
Atom  19F    basis set group =>   6
Atom  20F    basis set group =>   6
Atom  21F    basis set group =>   6
Atom  22H    basis set group =>   2
Atom  23C    basis set group =>   1
Atom  24C    basis set group =>   1
Atom  25C    basis set group =>   1
Atom  26H    basis set group =>   2
Atom  27C    basis set group =>   1
Atom  28H    basis set group =>   2
Atom  29C    basis set group =>   1
Atom  30H    basis set group =>   2
Atom  31C    basis set group =>   1
Atom  32H    basis set group =>   2
Atom  33C    basis set group =>   1
Atom  34H    basis set group =>   2
Atom  35H    basis set group =>   2
Atom  36H    basis set group =>   2
Atom  37H    basis set group =>   2
Atom  38O    basis set group =>   4
Atom  39H    basis set group =>   2


           ************************************************************
           *        Program running with 8 parallel MPI-processes     *
           *              working on a common directory               *
           ************************************************************
------------------------------------------------------------------------------
                           ORCA GTO INTEGRAL CALCULATION
                           -- RI-GTO INTEGRALS CHOSEN --
------------------------------------------------------------------------------
------------------------------------------------------------------------------
                   ___                                                        
                  /   \      - P O W E R E D   B Y -                         
                 /     \                                                     
                 |  |  |   _    _      __       _____    __    __             
                 |  |  |  | |  | |    /  \     |  _  \  |  |  /  |          
                  \  \/   | |  | |   /    \    | | | |  |  | /  /          
                 / \  \   | |__| |  /  /\  \   | |_| |  |  |/  /          
                |  |  |   |  __  | /  /__\  \  |    /   |      \           
                |  |  |   | |  | | |   __   |  |    \   |  |\   \          
                \     /   | |  | | |  |  |  |  | |\  \  |  | \   \       
                 \___/    |_|  |_| |__|  |__|  |_| \__\ |__|  \__/        
                                                                              
                      - O R C A' S   B I G   F R I E N D -                    
                                      &                                       
                       - I N T E G R A L  F E E D E R -                       
                                                                              
 v1 FN, 2020, v2 2021                                                         
------------------------------------------------------------------------------


Reading SHARK input file HA.33.avtz.SHARKINP.tmp ... ok
----------------------
SHARK INTEGRAL PACKAGE
----------------------

Number of atoms                             ...     40
Number of basis functions                   ...   1697
Number of shells                            ...    657
Maximum angular momentum                    ...      3
Integral batch strategy                     ... SHARK/LIBINT Hybrid
RI-J (if used) integral strategy            ... SPLIT-RIJ (Revised 2003 algorithm where possible)
Printlevel                                  ...      1
Contraction scheme used                     ... PARTIAL GENERAL contraction
Coulomb Range Separation                    ... NOT USED
Exchange Range Separation                   ... NOT USED
Finite Nucleus Model                        ... NOT USED
Auxiliary Coulomb fitting basis             ... AVAILABLE
   # of basis functions in Aux-J            ...   1430
   # of shells in Aux-J                     ...    462
   Maximum angular momentum in Aux-J        ...      4
Auxiliary J/K fitting basis                 ... NOT available
Auxiliary Correlation fitting basis         ... AVAILABLE
   # of basis functions in Aux-C            ...   3441
   # of shells in Aux-C                     ...    933
   Maximum angular momentum in Aux-C        ...      4
Auxiliary 'external' fitting basis          ... NOT available
Integral threshold                          ...     2.500000e-11
Primitive cut-off                           ...     2.500000e-12
Primitive pair pre-selection threshold      ...     2.500000e-12

Calculating pre-screening integrals         ... done (  0.1 sec) Dimension = 657
Calculating pre-screening integrals (ORCA)  ... done (  0.4 sec) Dimension = 492
Organizing shell pair data                  ... done (  1.4 sec)
Shell pair information
Total number of shell pairs                 ...    216153
Shell pairs after pre-screening             ...    132210
Total number of primitive shell pairs       ...    270597
Primitive shell pairs kept                  ...    151061
          la=0 lb=0:  28937 shell pairs
          la=1 lb=0:  34570 shell pairs
          la=1 lb=1:   9087 shell pairs
          la=2 lb=0:  22486 shell pairs
          la=2 lb=1:  12126 shell pairs
          la=2 lb=2:   4099 shell pairs
          la=3 lb=0:  10331 shell pairs
          la=3 lb=1:   5791 shell pairs
          la=3 lb=2:   3844 shell pairs
          la=3 lb=3:    939 shell pairs

Calculating one electron integrals          ... done (  0.3 sec)
Calculating RI/J V-Matrix + Cholesky decomp.... done (  0.1 sec)
Calculating RI/C V-Matrix + Cholesky decomp.... done (  0.6 sec)
Calculating Nuclear repulsion               ... done (  0.0 sec) ENN=   2568.572027147216 Eh

SHARK setup successfully completed in   4.8 seconds

Maximum memory used throughout the entire GTOINT-calculation: 174.6 MB


           ************************************************************
           *        Program running with 8 parallel MPI-processes     *
           *              working on a common directory               *
           ************************************************************
-------------------------------------------------------------------------------
                                 ORCA SCF
-------------------------------------------------------------------------------

------------
SCF SETTINGS
------------
Hamiltonian:
 Density Functional     Method          .... DFT(GTOs)
 Exchange Functional    Exchange        .... PBE
   PBE kappa parameter   XKappa         ....  0.804000
   PBE mue parameter    XMuePBE         ....  0.219520
 Correlation Functional Correlation     .... P86
 LDA part of GGA corr.  LDAOpt          .... VWN-5
 Gradients option       PostSCFGGA      .... off
 Hybrid DFT is turned on
   Fraction HF Exchange ScalHFX         ....  0.700000
   Scaling of DF-GGA-X  ScalDFX         ....  0.300000
   Scaling of DF-GGA-C  ScalDFC         ....  0.430000
   Scaling of DF-LDA-C  ScalLDAC        ....  0.430000
   Perturbative correction              ....  1.000000
   Density functional embedding theory  .... OFF
   NL short-range parameter             .... 14.200000
 RI-approximation to the Coulomb term is turned on
   Number of AuxJ basis functions       .... 1430
   RIJ-COSX (HFX calculated with COS-X)).... on


General Settings:
 Integral files         IntName         .... HA.33.avtz
 Hartree-Fock type      HFTyp           .... RHF
 Total Charge           Charge          ....    0
 Multiplicity           Mult            ....    1
 Number of Electrons    NEL             ....  198
 Basis Dimension        Dim             .... 1522
 Nuclear Repulsion      ENuc            ....   2568.5720271472 Eh

Convergence Acceleration:
 DIIS                   CNVDIIS         .... on
   Start iteration      DIISMaxIt       ....    12
   Startup error        DIISStart       ....  0.200000
   # of expansion vecs  DIISMaxEq       ....     5
   Bias factor          DIISBfac        ....   1.050
   Max. coefficient     DIISMaxC        ....  10.000
 Trust-Rad. Augm. Hess. CNVTRAH         .... auto
   Auto Start mean grad. ratio tolernc. ....  1.125000
   Auto Start start iteration           ....    20
   Auto Start num. interpolation iter.  ....    10
   Max. Number of Micro iterations      ....    16
   Max. Number of Macro iterations      .... Maxiter - #DIIS iter
   Number of Davidson start vectors     ....     2
   Converg. threshold I  (grad. norm)   ....   1.000e-05
   Converg. threshold II (energy diff.) ....   1.000e-08
   Grad. Scal. Fac. for Micro threshold ....   0.100
   Minimum threshold for Micro iter.    ....   0.010
   NR start threshold (gradient norm)   ....   0.001
   Initial trust radius                 ....   0.400
   Minimum AH scaling param. (alpha)    ....   1.000
   Maximum AH scaling param. (alpha)    .... 1000.000
   Orbital update algorithm             .... Taylor
   White noise on init. David. guess    .... on
   Maximum white noise                  ....   0.010
   Quad. conv. algorithm                .... NR
 SOSCF                  CNVSOSCF        .... on
   Start iteration      SOSCFMaxIt      ....   150
   Startup grad/error   SOSCFStart      ....  0.003300
 Level Shifting         CNVShift        .... on
   Level shift para.    LevelShift      ....    0.2500
   Turn off err/grad.   ShiftErr        ....    0.0010
 Zerner damping         CNVZerner       .... off
 Static damping         CNVDamp         .... on
   Fraction old density DampFac         ....    0.7000
   Max. Damping (<1)    DampMax         ....    0.9800
   Min. Damping (>=0)   DampMin         ....    0.0000
   Turn off err/grad.   DampErr         ....    0.1000
 Fernandez-Rico         CNVRico         .... off

SCF Procedure:
 Maximum # iterations   MaxIter         ....   125
 SCF integral mode      SCFMode         .... Direct
   Integral package                     .... SHARK and LIBINT hybrid scheme
 Reset frequency        DirectResetFreq ....    20
 Integral Threshold     Thresh          ....  2.500e-11 Eh
 Primitive CutOff       TCut            ....  2.500e-12 Eh

Convergence Tolerance:
 Convergence Check Mode ConvCheckMode   .... Total+1el-Energy
 Convergence forced     ConvForced      .... 0
 Energy Change          TolE            ....  1.000e-08 Eh
 1-El. energy change                    ....  1.000e-05 Eh
 Orbital Gradient       TolG            ....  1.000e-05
 Orbital Rotation angle TolX            ....  1.000e-05
 DIIS Error             TolErr          ....  5.000e-07


Diagonalization of the overlap matrix:
Smallest eigenvalue                        ... 5.974e-08
Time for diagonalization                   ...    0.305 sec
Threshold for overlap eigenvalues          ... 1.000e-08
Number of eigenvalues below threshold      ... 0
Time for construction of square roots      ...    0.219 sec
Total time needed                          ...    0.534 sec

Time for model grid setup =    0.485 sec

------------------------------
INITIAL GUESS: MODEL POTENTIAL
------------------------------
Loading Hartree-Fock densities                     ... done
Calculating cut-offs                               ... done
Initializing the effective Hamiltonian             ... done
Setting up the integral package (SHARK)            ... done
Starting the Coulomb interaction                   ... done (   2.1 sec)
Reading the grid                                   ... done
Mapping shells                                     ... done
Starting the XC term evaluation                    ... done (   1.7 sec)
  promolecular density results
     # of electrons  =    197.994422456
     EX              =   -185.165636639
     EC              =     -0.024289008
     EX+EC           =   -185.189925647
Transforming the Hamiltonian                       ... done (   0.2 sec)
Diagonalizing the Hamiltonian                      ... done (   0.3 sec)
Back transforming the eigenvectors                 ... done (   0.1 sec)
Now organizing SCF variables                       ... done
                      ------------------
                      INITIAL GUESS DONE (   4.9 sec)
                      ------------------
-------------------
DFT GRID GENERATION
-------------------

General Integration Accuracy     IntAcc      ... 4.388
Radial Grid Type                 RadialGrid  ... OptM3 with GC (2021)
Angular Grid (max. ang.)         AngularGrid ... 4 (Lebedev-302)
Angular grid pruning method      GridPruning ... 4 (adaptive)
Weight generation scheme         WeightScheme... Becke
Basis function cutoff            BFCut       ... 1.0000e-11
Integration weight cutoff        WCut        ... 1.0000e-14
Angular grids for H and He will be reduced by one unit
Partially contracted basis set               ... off
Rotationally invariant grid construction     ... off

Total number of grid points                  ...   210377
Total number of batches                      ...     3307
Average number of points per batch           ...       63
Average number of grid points per atom       ...     5259
Time for grid setup =    1.690 sec

--------------------
COSX GRID GENERATION
--------------------

GRIDX 1
-------
General Integration Accuracy     IntAcc      ... 3.816
Radial Grid Type                 RadialGrid  ... OptM3 with GC (2021)
Angular Grid (max. ang.)         AngularGrid ... 1 (Lebedev-50)
Angular grid pruning method      GridPruning ... 4 (adaptive)
Weight generation scheme         WeightScheme... Becke
Basis function cutoff            BFCut       ... 1.0000e-11
Integration weight cutoff        WCut        ... 1.0000e-14
Angular grids for H and He will be reduced by one unit
Partially contracted basis set               ... on
Rotationally invariant grid construction     ... off

Total number of grid points                  ...    26315
Total number of batches                      ...      431
Average number of points per batch           ...       61
Average number of grid points per atom       ...      658
UseSFitting                                  ... on

GRIDX 2
-------
General Integration Accuracy     IntAcc      ... 4.020
Radial Grid Type                 RadialGrid  ... OptM3 with GC (2021)
Angular Grid (max. ang.)         AngularGrid ... 2 (Lebedev-110)
Angular grid pruning method      GridPruning ... 4 (adaptive)
Weight generation scheme         WeightScheme... Becke
Basis function cutoff            BFCut       ... 1.0000e-11
Integration weight cutoff        WCut        ... 1.0000e-14
Angular grids for H and He will be reduced by one unit
Partially contracted basis set               ... on
Rotationally invariant grid construction     ... off

Total number of grid points                  ...    63990
Total number of batches                      ...     1021
Average number of points per batch           ...       62
Average number of grid points per atom       ...     1600
UseSFitting                                  ... on

GRIDX 3
-------
General Integration Accuracy     IntAcc      ... 4.338
Radial Grid Type                 RadialGrid  ... OptM3 with GC (2021)
Angular Grid (max. ang.)         AngularGrid ... 3 (Lebedev-194)
Angular grid pruning method      GridPruning ... 4 (adaptive)
Weight generation scheme         WeightScheme... Becke
Basis function cutoff            BFCut       ... 1.0000e-11
Integration weight cutoff        WCut        ... 1.0000e-14
Angular grids for H and He will be reduced by one unit
Partially contracted basis set               ... on
Rotationally invariant grid construction     ... off

Total number of grid points                  ...   141029
Total number of batches                      ...     2223
Average number of points per batch           ...       63
Average number of grid points per atom       ...     3526
UseSFitting                                  ... on

Time for X-Grid setup             =    5.632 sec

 re-compute Schwartz prescreening matrix in partically contracted basis (1) ...done (   0.177 sec)
--------------
SCF ITERATIONS
--------------
ITER       Energy         Delta-E        Max-DP      RMS-DP      [F,P]     Damp
               ***  Starting incremental Fock matrix formation  ***
  0  -1700.6239425761   0.000000000000 3.32971513  0.01258989  0.2885099 0.7000
  1  -1700.9189406582  -0.294998082102 3.43611863  0.01199569  0.1488365 0.7000
                               ***Turning on DIIS***
  2  -1701.0684946289  -0.149553970672 9.62516979  0.03312023  0.0700052 0.0000
  3  -1701.3327530584  -0.264258429520 1.71767351  0.00664486  0.0679865 0.0000
  4  -1701.3645023456  -0.031749287262 0.36931264  0.00216112  0.0093653 0.0000
  5  -1701.3657351110  -0.001232765315 0.12599478  0.00082244  0.0064916 0.0000
                      *** Initiating the SOSCF procedure ***
                           *** Shutting down DIIS ***
                      *** Re-Reading the Fockian *** 
                      *** Removing any level shift *** 
ITER      Energy       Delta-E        Grad      Rot      Max-DP    RMS-DP
  6  -1701.36605478  -0.0003196707  0.000708  0.000708  0.350488  0.001812
               *** Restarting incremental Fock matrix formation ***
  7  -1701.36608175  -0.0000269728  0.000328  0.000895  5.082380  0.019316
  8  -1701.36613640  -0.0000546436  0.000175  0.000556  0.356627  0.001584
  9  -1701.36613877  -0.0000023687  0.000079  0.000149  0.808635  0.002446
 10  -1701.36614038  -0.0000016096  0.000022  0.000077  0.136429  0.000982
 11  -1701.36614016   0.0000002182  0.000009  0.000030  0.144284  0.000622
 12  -1701.36614005   0.0000001117  0.000004  0.000026  0.278294  0.000907
 13  -1701.36614002   0.0000000244  0.000004  0.000031  1.098988  0.003376
 14  -1701.36614042  -0.0000003962  0.000005  0.000022  0.496991  0.001489
                  ***Gradient check signals convergence***
              ***Rediagonalizing the Fockian in SOSCF/NRSCF***

               *****************************************************
               *                     SUCCESS                       *
               *           SCF CONVERGED AFTER  15 CYCLES          *
               *****************************************************

Old exchange energy                            =   -131.650388691 Eh
New exchange energy                            =   -131.649959634 Eh
Exchange energy change after final integration =      0.000429057 Eh
Total energy after final integration           =  -1701.365711370 Eh
Final COS-X integration done in                =   125.499 sec

----------------
TOTAL SCF ENERGY
----------------

Total Energy       :        -1701.36571137 Eh          -46296.51468 eV

Components:
Nuclear Repulsion  :         2568.57202715 Eh           69894.39822 eV
Electronic Energy  :        -4269.93773852 Eh         -116190.91290 eV
One Electron Energy:        -7444.85183896 Eh         -202584.71775 eV
Two Electron Energy:         3174.91410045 Eh           86393.80485 eV
Max COSX asymmetry :            0.00015603 Eh               0.00425 eV

Virial components:
Potential Energy   :        -3397.61236142 Eh          -92453.73261 eV
Kinetic Energy     :         1696.24665005 Eh           46157.21794 eV
Virial Ratio       :            2.00301788


DFT components:
N(Alpha)           :       99.000020355040 electrons
N(Beta)            :       99.000020355040 electrons
N(Total)           :      198.000040710080 electrons
E(X)               :      -56.234127365678 Eh       
E(C)               :       -3.270396326855 Eh       
E(XC)              :      -59.504523692533 Eh       
DFET-embed. en.    :        0.000000000000 Eh       

---------------
SCF CONVERGENCE
---------------

  Last Energy change         ...   -8.7805e-09  Tolerance :   1.0000e-08
  Last MAX-Density change    ...    7.1054e-15  Tolerance :   1.0000e-07
  Last RMS-Density change    ...    3.8787e-17  Tolerance :   5.0000e-09
  Last Orbital Gradient      ...    1.7804e-06  Tolerance :   1.0000e-05
  Last Orbital Rotation      ...    2.7857e-05  Tolerance :   1.0000e-05

             **** THE GBW FILE WAS UPDATED (HA.33.avtz.gbw) ****
             **** DENSITY HA.33.avtz.scfp WAS UPDATED ****
             **** ENERGY FILE WAS UPDATED (HA.33.avtz.en.tmp) ****
             **** THE GBW FILE WAS UPDATED (HA.33.avtz.gbw) ****
             **** DENSITY HA.33.avtz.scfp WAS UPDATED ****
----------------
ORBITAL ENERGIES
----------------

  NO   OCC          E(Eh)            E(eV) 
   0   2.0000     -91.042681     -2477.3973 
   1   2.0000     -25.747142      -700.6153 
   2   2.0000     -25.744713      -700.5493 
   3   2.0000     -25.737275      -700.3469 
   4   2.0000     -20.014399      -544.6195 
   5   2.0000     -20.013155      -544.5856 
   6   2.0000     -20.005446      -544.3759 
   7   2.0000     -15.146942      -412.1692 
   8   2.0000     -15.140773      -412.0014 
   9   2.0000     -15.134756      -411.8376 
  10   2.0000     -11.120726      -302.6104 
  11   2.0000     -10.967741      -298.4474 
  12   2.0000     -10.946801      -297.8776 
  13   2.0000     -10.932232      -297.4812 
  14   2.0000     -10.912056      -296.9321 
  15   2.0000     -10.894426      -296.4524 
  16   2.0000     -10.882385      -296.1248 
  17   2.0000     -10.879919      -296.0577 
  18   2.0000     -10.875701      -295.9429 
  19   2.0000     -10.874103      -295.8994 
  20   2.0000     -10.871421      -295.8264 
  21   2.0000     -10.864948      -295.6503 
  22   2.0000     -10.864567      -295.6399 
  23   2.0000     -10.863931      -295.6226 
  24   2.0000     -10.863409      -295.6084 
  25   2.0000     -10.861698      -295.5618 
  26   2.0000      -8.785123      -239.0554 
  27   2.0000      -6.571227      -178.8122 
  28   2.0000      -6.570180      -178.7837 
  29   2.0000      -6.568348      -178.7338 
  30   2.0000      -1.594624       -43.3919 
  31   2.0000      -1.502170       -40.8761 
  32   2.0000      -1.497672       -40.7537 
  33   2.0000      -1.339075       -36.4381 
  34   2.0000      -1.281274       -34.8652 
  35   2.0000      -1.223773       -33.3006 
  36   2.0000      -1.210287       -32.9336 
  37   2.0000      -1.127327       -30.6761 
  38   2.0000      -1.110073       -30.2066 
  39   2.0000      -1.091051       -29.6890 
  40   2.0000      -1.078974       -29.3604 
  41   2.0000      -1.011078       -27.5128 
  42   2.0000      -0.991803       -26.9883 
  43   2.0000      -0.962373       -26.1875 
  44   2.0000      -0.947085       -25.7715 
  45   2.0000      -0.910697       -24.7813 
  46   2.0000      -0.905056       -24.6278 
  47   2.0000      -0.836733       -22.7687 
  48   2.0000      -0.828462       -22.5436 
  49   2.0000      -0.810497       -22.0547 
  50   2.0000      -0.780641       -21.2423 
  51   2.0000      -0.777950       -21.1691 
  52   2.0000      -0.757685       -20.6177 
  53   2.0000      -0.755013       -20.5450 
  54   2.0000      -0.750915       -20.4334 
  55   2.0000      -0.745409       -20.2836 
  56   2.0000      -0.722857       -19.6699 
  57   2.0000      -0.683683       -18.6040 
  58   2.0000      -0.678779       -18.4705 
  59   2.0000      -0.663381       -18.0515 
  60   2.0000      -0.661202       -17.9922 
  61   2.0000      -0.655826       -17.8459 
  62   2.0000      -0.641093       -17.4450 
  63   2.0000      -0.638258       -17.3679 
  64   2.0000      -0.628964       -17.1150 
  65   2.0000      -0.614200       -16.7132 
  66   2.0000      -0.600850       -16.3499 
  67   2.0000      -0.599271       -16.3070 
  68   2.0000      -0.597709       -16.2645 
  69   2.0000      -0.595530       -16.2052 
  70   2.0000      -0.594254       -16.1705 
  71   2.0000      -0.584760       -15.9121 
  72   2.0000      -0.575486       -15.6598 
  73   2.0000      -0.573325       -15.6010 
  74   2.0000      -0.564560       -15.3625 
  75   2.0000      -0.557352       -15.1663 
  76   2.0000      -0.554581       -15.0909 
  77   2.0000      -0.550296       -14.9743 
  78   2.0000      -0.540095       -14.6967 
  79   2.0000      -0.535772       -14.5791 
  80   2.0000      -0.521519       -14.1913 
  81   2.0000      -0.508855       -13.8466 
  82   2.0000      -0.505264       -13.7489 
  83   2.0000      -0.488069       -13.2810 
  84   2.0000      -0.478688       -13.0258 
  85   2.0000      -0.464872       -12.6498 
  86   2.0000      -0.463046       -12.6001 
  87   2.0000      -0.452875       -12.3233 
  88   2.0000      -0.449655       -12.2357 
  89   2.0000      -0.438100       -11.9213 
  90   2.0000      -0.417754       -11.3677 
  91   2.0000      -0.415798       -11.3144 
  92   2.0000      -0.409733       -11.1494 
  93   2.0000      -0.388808       -10.5800 
  94   2.0000      -0.372902       -10.1472 
  95   2.0000      -0.360493        -9.8095 
  96   2.0000      -0.340553        -9.2669 
  97   2.0000      -0.334450        -9.1009 
  98   2.0000      -0.310901        -8.4601 
  99   0.0000      -0.006630        -0.1804 
 100   0.0000       0.002389         0.0650 
 101   0.0000       0.011169         0.3039 
 102   0.0000       0.012647         0.3441 
 103   0.0000       0.016306         0.4437 
 104   0.0000       0.023626         0.6429 
 105   0.0000       0.027196         0.7400 
 106   0.0000       0.029786         0.8105 
 107   0.0000       0.031629         0.8607 
 108   0.0000       0.032780         0.8920 
 109   0.0000       0.036443         0.9917 
 110   0.0000       0.037205         1.0124 
 111   0.0000       0.043159         1.1744 
 112   0.0000       0.048734         1.3261 
 113   0.0000       0.050017         1.3610 
 114   0.0000       0.055554         1.5117 
 115   0.0000       0.057058         1.5526 
 116   0.0000       0.060393         1.6434 
 117   0.0000       0.062772         1.7081 
 118   0.0000       0.068892         1.8746 
 119   0.0000       0.073991         2.0134 
 120   0.0000       0.077090         2.0977 
 121   0.0000       0.080374         2.1871 
 122   0.0000       0.083209         2.2642 
 123   0.0000       0.085147         2.3170 
 124   0.0000       0.086801         2.3620 
 125   0.0000       0.089160         2.4262 
 126   0.0000       0.090542         2.4638 
 127   0.0000       0.092459         2.5159 
 128   0.0000       0.093847         2.5537 
 129   0.0000       0.096943         2.6380 
 130   0.0000       0.100175         2.7259 
 131   0.0000       0.101694         2.7672 
 132   0.0000       0.103463         2.8154 
 133   0.0000       0.104861         2.8534 
 134   0.0000       0.109398         2.9769 
 135   0.0000       0.111033         3.0214 
 136   0.0000       0.111685         3.0391 
 137   0.0000       0.114214         3.1079 
 138   0.0000       0.116746         3.1768 
 139   0.0000       0.120361         3.2752 
 140   0.0000       0.122486         3.3330 
 141   0.0000       0.123873         3.3708 
 142   0.0000       0.126581         3.4444 
 143   0.0000       0.128812         3.5052 
 144   0.0000       0.131097         3.5673 
 145   0.0000       0.135839         3.6964 
 146   0.0000       0.136850         3.7239 
 147   0.0000       0.139229         3.7886 
 148   0.0000       0.141228         3.8430 
 149   0.0000       0.142531         3.8785 
 150   0.0000       0.145015         3.9461 
 151   0.0000       0.147127         4.0035 
 152   0.0000       0.148786         4.0487 
 153   0.0000       0.152756         4.1567 
 154   0.0000       0.154454         4.2029 
 155   0.0000       0.156932         4.2703 
 156   0.0000       0.158651         4.3171 
 157   0.0000       0.161928         4.4063 
 158   0.0000       0.163931         4.4608 
 159   0.0000       0.170935         4.6514 
 160   0.0000       0.176512         4.8031 
 161   0.0000       0.177791         4.8379 
 162   0.0000       0.180053         4.8995 
 163   0.0000       0.181469         4.9380 
 164   0.0000       0.185193         5.0394 
 165   0.0000       0.185561         5.0494 
 166   0.0000       0.187870         5.1122 
 167   0.0000       0.190805         5.1921 
 168   0.0000       0.194230         5.2853 
 169   0.0000       0.198129         5.3914 
 170   0.0000       0.199907         5.4397 
 171   0.0000       0.200635         5.4595 
 172   0.0000       0.202907         5.5214 
 173   0.0000       0.206626         5.6226 
 174   0.0000       0.207147         5.6368 
 175   0.0000       0.211798         5.7633 
 176   0.0000       0.212631         5.7860 
 177   0.0000       0.213390         5.8066 
 178   0.0000       0.217415         5.9162 
 179   0.0000       0.219576         5.9750 
 180   0.0000       0.220531         6.0010 
 181   0.0000       0.223230         6.0744 
 182   0.0000       0.224417         6.1067 
 183   0.0000       0.227431         6.1887 
 184   0.0000       0.227635         6.1943 
 185   0.0000       0.230142         6.2625 
 186   0.0000       0.230704         6.2778 
 187   0.0000       0.234435         6.3793 
 188   0.0000       0.235345         6.4041 
 189   0.0000       0.235979         6.4213 
 190   0.0000       0.237104         6.4519 
 191   0.0000       0.239649         6.5212 
 192   0.0000       0.242167         6.5897 
 193   0.0000       0.244531         6.6540 
 194   0.0000       0.246571         6.7095 
 195   0.0000       0.247422         6.7327 
 196   0.0000       0.251063         6.8318 
 197   0.0000       0.254833         6.9344 
 198   0.0000       0.255877         6.9628 
 199   0.0000       0.258187         7.0256 
 200   0.0000       0.260483         7.0881 
 201   0.0000       0.263948         7.1824 
 202   0.0000       0.264855         7.2071 
 203   0.0000       0.268605         7.3091 
 204   0.0000       0.270208         7.3527 
 205   0.0000       0.270326         7.3559 
 206   0.0000       0.272651         7.4192 
 207   0.0000       0.274384         7.4664 
 208   0.0000       0.277176         7.5423 
 209   0.0000       0.278602         7.5811 
 210   0.0000       0.280700         7.6382 
 211   0.0000       0.282807         7.6956 
 212   0.0000       0.284427         7.7397 
 213   0.0000       0.288144         7.8408 
 214   0.0000       0.289832         7.8867 
 215   0.0000       0.292583         7.9616 
 216   0.0000       0.293165         7.9774 
 217   0.0000       0.295218         8.0333 
 218   0.0000       0.298206         8.1146 
 219   0.0000       0.300951         8.1893 
 220   0.0000       0.303076         8.2471 
 221   0.0000       0.303301         8.2532 
 222   0.0000       0.306026         8.3274 
 223   0.0000       0.311367         8.4727 
 224   0.0000       0.312665         8.5080 
 225   0.0000       0.313259         8.5242 
 226   0.0000       0.315362         8.5814 
 227   0.0000       0.321221         8.7409 
 228   0.0000       0.322776         8.7832 
 229   0.0000       0.324847         8.8395 
 230   0.0000       0.327655         8.9159 
 231   0.0000       0.329364         8.9625 
 232   0.0000       0.330567         8.9952 
 233   0.0000       0.332033         9.0351 
 234   0.0000       0.333300         9.0696 
 235   0.0000       0.339656         9.2425 
 236   0.0000       0.342152         9.3104 
 237   0.0000       0.343217         9.3394 
 238   0.0000       0.345678         9.4064 
 239   0.0000       0.351093         9.5537 
 240   0.0000       0.353585         9.6215 
 241   0.0000       0.355555         9.6751 
 242   0.0000       0.357128         9.7179 
 243   0.0000       0.358608         9.7582 
 244   0.0000       0.362251         9.8574 
 245   0.0000       0.363906         9.9024 
 246   0.0000       0.365897         9.9566 
 247   0.0000       0.366448         9.9715 
 248   0.0000       0.371486        10.1087 
 249   0.0000       0.376361        10.2413 
 250   0.0000       0.377078        10.2608 
 251   0.0000       0.378919        10.3109 
 252   0.0000       0.380729        10.3602 
 253   0.0000       0.384977        10.4757 
 254   0.0000       0.386750        10.5240 
 255   0.0000       0.389524        10.5995 
 256   0.0000       0.391850        10.6628 
 257   0.0000       0.392193        10.6721 
 258   0.0000       0.393674        10.7124 
 259   0.0000       0.396718        10.7952 
 260   0.0000       0.399759        10.8780 
 261   0.0000       0.402216        10.9449 
 262   0.0000       0.405591        11.0367 
 263   0.0000       0.406639        11.0652 
 264   0.0000       0.407864        11.0985 
 265   0.0000       0.411077        11.1860 
 266   0.0000       0.413965        11.2646 
 267   0.0000       0.415795        11.3144 
 268   0.0000       0.417391        11.3578 
 269   0.0000       0.419993        11.4286 
 270   0.0000       0.421363        11.4659 
 271   0.0000       0.421874        11.4798 
 272   0.0000       0.423978        11.5370 
 273   0.0000       0.426767        11.6129 
 274   0.0000       0.430068        11.7027 
 275   0.0000       0.432500        11.7689 
 276   0.0000       0.435033        11.8378 
 277   0.0000       0.437583        11.9072 
 278   0.0000       0.440479        11.9860 
 279   0.0000       0.441524        12.0145 
 280   0.0000       0.443969        12.0810 
 281   0.0000       0.445182        12.1140 
 282   0.0000       0.449504        12.2316 
 283   0.0000       0.450740        12.2653 
 284   0.0000       0.452134        12.3032 
 285   0.0000       0.455491        12.3945 
 286   0.0000       0.457435        12.4474 
 287   0.0000       0.460420        12.5287 
 288   0.0000       0.461782        12.5657 
 289   0.0000       0.464207        12.6317 
 290   0.0000       0.465853        12.6765 
 291   0.0000       0.470626        12.8064 
 292   0.0000       0.472179        12.8487 
 293   0.0000       0.475259        12.9325 
 294   0.0000       0.476001        12.9526 
 295   0.0000       0.476983        12.9794 
 296   0.0000       0.478170        13.0117 
 297   0.0000       0.480443        13.0735 
 298   0.0000       0.482926        13.1411 
 299   0.0000       0.483652        13.1608 
 300   0.0000       0.486724        13.2444 
 301   0.0000       0.489360        13.3162 
 302   0.0000       0.491297        13.3689 
 303   0.0000       0.494546        13.4573 
 304   0.0000       0.494935        13.4679 
 305   0.0000       0.495871        13.4933 
 306   0.0000       0.502956        13.6861 
 307   0.0000       0.504470        13.7273 
 308   0.0000       0.506038        13.7700 
 309   0.0000       0.510180        13.8827 
 310   0.0000       0.511747        13.9253 
 311   0.0000       0.512554        13.9473 
 312   0.0000       0.514602        14.0030 
 313   0.0000       0.520653        14.1677 
 314   0.0000       0.524724        14.2785 
 315   0.0000       0.526064        14.3149 
 316   0.0000       0.527547        14.3553 
 317   0.0000       0.529326        14.4037 
 318   0.0000       0.529706        14.4140 
 319   0.0000       0.532491        14.4898 
 320   0.0000       0.536259        14.5924 
 321   0.0000       0.540225        14.7003 
 322   0.0000       0.542607        14.7651 
 323   0.0000       0.544616        14.8198 
 324   0.0000       0.546638        14.8748 
 325   0.0000       0.548805        14.9337 
 326   0.0000       0.551957        15.0195 
 327   0.0000       0.555609        15.1189 
 328   0.0000       0.557891        15.1810 
 329   0.0000       0.559417        15.2225 
 330   0.0000       0.562726        15.3126 
 331   0.0000       0.565045        15.3757 
 332   0.0000       0.572224        15.5710 
 333   0.0000       0.576441        15.6858 
 334   0.0000       0.578046        15.7294 
 335   0.0000       0.583069        15.8661 
 336   0.0000       0.583728        15.8840 
 337   0.0000       0.587444        15.9852 
 338   0.0000       0.590563        16.0700 
 339   0.0000       0.592098        16.1118 
 340   0.0000       0.593611        16.1530 
 341   0.0000       0.595045        16.1920 
 342   0.0000       0.600298        16.3349 
 343   0.0000       0.603895        16.4328 
 344   0.0000       0.607790        16.5388 
 345   0.0000       0.610296        16.6070 
 346   0.0000       0.611805        16.6481 
 347   0.0000       0.616853        16.7854 
 348   0.0000       0.619296        16.8519 
 349   0.0000       0.620894        16.8954 
 350   0.0000       0.626275        17.0418 
 351   0.0000       0.627179        17.0664 
 352   0.0000       0.629963        17.1422 
 353   0.0000       0.633149        17.2289 
 354   0.0000       0.633519        17.2389 
 355   0.0000       0.637108        17.3366 
 356   0.0000       0.641416        17.4538 
 357   0.0000       0.643839        17.5198 
 358   0.0000       0.649468        17.6729 
 359   0.0000       0.652007        17.7420 
 360   0.0000       0.654150        17.8003 
 361   0.0000       0.657460        17.8904 
 362   0.0000       0.661028        17.9875 
 363   0.0000       0.664095        18.0709 
 364   0.0000       0.665029        18.0964 
 365   0.0000       0.667371        18.1601 
 366   0.0000       0.671725        18.2786 
 367   0.0000       0.672852        18.3092 
 368   0.0000       0.674781        18.3617 
 369   0.0000       0.680819        18.5260 
 370   0.0000       0.682414        18.5694 
 371   0.0000       0.686183        18.6720 
 372   0.0000       0.692983        18.8570 
 373   0.0000       0.695208        18.9176 
 374   0.0000       0.701341        19.0845 
 375   0.0000       0.703750        19.1500 
 376   0.0000       0.705548        19.1990 
 377   0.0000       0.709877        19.3167 
 378   0.0000       0.711865        19.3708 
 379   0.0000       0.713783        19.4230 
 380   0.0000       0.716190        19.4885 
 381   0.0000       0.722542        19.6614 
 382   0.0000       0.724990        19.7280 
 383   0.0000       0.727707        19.8019 
 384   0.0000       0.730703        19.8834 
 385   0.0000       0.734150        19.9772 
 386   0.0000       0.738942        20.1076 
 387   0.0000       0.740641        20.1539 
 388   0.0000       0.743461        20.2306 
 389   0.0000       0.749944        20.4070 
 390   0.0000       0.751654        20.4536 
 391   0.0000       0.753076        20.4922 
 392   0.0000       0.756425        20.5834 
 393   0.0000       0.759540        20.6681 
 394   0.0000       0.762867        20.7587 
 395   0.0000       0.767684        20.8898 
 396   0.0000       0.768685        20.9170 
 397   0.0000       0.774402        21.0725 
 398   0.0000       0.777902        21.1678 
 399   0.0000       0.778316        21.1791 
 400   0.0000       0.780946        21.2506 
 401   0.0000       0.784021        21.3343 
 402   0.0000       0.786938        21.4137 
 403   0.0000       0.790881        21.5210 
 404   0.0000       0.791056        21.5257 
 405   0.0000       0.796866        21.6838 
 406   0.0000       0.799117        21.7451 
 407   0.0000       0.802355        21.8332 
 408   0.0000       0.806917        21.9573 
 409   0.0000       0.809705        22.0332 
 410   0.0000       0.810997        22.0684 
 411   0.0000       0.812294        22.1036 
 412   0.0000       0.816757        22.2251 
 413   0.0000       0.819330        22.2951 
 414   0.0000       0.822307        22.3761 
 415   0.0000       0.824182        22.4271 
 416   0.0000       0.825344        22.4588 
 417   0.0000       0.829570        22.5738 
 418   0.0000       0.830918        22.6104 
 419   0.0000       0.832567        22.6553 
 420   0.0000       0.838742        22.8233 
 421   0.0000       0.841739        22.9049 
 422   0.0000       0.845059        22.9952 
 423   0.0000       0.845848        23.0167 
 424   0.0000       0.850810        23.1517 
 425   0.0000       0.851672        23.1752 
 426   0.0000       0.856380        23.3033 
 427   0.0000       0.859062        23.3763 
 428   0.0000       0.860745        23.4221 
 429   0.0000       0.864287        23.5184 
 430   0.0000       0.866365        23.5750 
 431   0.0000       0.868173        23.6242 
 432   0.0000       0.869350        23.6562 
 433   0.0000       0.876884        23.8612 
 434   0.0000       0.878761        23.9123 
 435   0.0000       0.879549        23.9337 
 436   0.0000       0.883847        24.0507 
 437   0.0000       0.884977        24.0815 
 438   0.0000       0.887008        24.1367 
 439   0.0000       0.890784        24.2395 
 440   0.0000       0.893579        24.3155 
 441   0.0000       0.897666        24.4267 
 442   0.0000       0.901683        24.5361 
 443   0.0000       0.905723        24.6460 
 444   0.0000       0.909727        24.7549 
 445   0.0000       0.911102        24.7923 
 446   0.0000       0.912508        24.8306 
 447   0.0000       0.914134        24.8749 
 448   0.0000       0.921862        25.0851 
 449   0.0000       0.926052        25.1992 
 450   0.0000       0.926365        25.2077 
 451   0.0000       0.929748        25.2997 
 452   0.0000       0.932145        25.3650 
 453   0.0000       0.936353        25.4795 
 454   0.0000       0.941339        25.6151 
 455   0.0000       0.943974        25.6868 
 456   0.0000       0.945589        25.7308 
 457   0.0000       0.948286        25.8042 
 458   0.0000       0.953841        25.9553 
 459   0.0000       0.956332        26.0231 
 460   0.0000       0.960414        26.1342 
 461   0.0000       0.961490        26.1635 
 462   0.0000       0.965923        26.2841 
 463   0.0000       0.967351        26.3229 
 464   0.0000       0.969190        26.3730 
 465   0.0000       0.976198        26.5637 
 466   0.0000       0.979240        26.6465 
 467   0.0000       0.981506        26.7081 
 468   0.0000       0.984032        26.7769 
 469   0.0000       0.985666        26.8213 
 470   0.0000       0.989666        26.9302 
 471   0.0000       0.995118        27.0785 
 472   0.0000       0.996565        27.1179 
 473   0.0000       0.998974        27.1835 
 474   0.0000       0.999683        27.2028 
 475   0.0000       1.001892        27.2629 
 476   0.0000       1.005250        27.3542 
 477   0.0000       1.007118        27.4051 
 478   0.0000       1.009918        27.4813 
 479   0.0000       1.011755        27.5313 
 480   0.0000       1.014923        27.6175 
 481   0.0000       1.016194        27.6520 
 482   0.0000       1.022729        27.8299 
 483   0.0000       1.023661        27.8552 
 484   0.0000       1.025559        27.9069 
 485   0.0000       1.026436        27.9308 
 486   0.0000       1.033018        28.1099 
 487   0.0000       1.035918        28.1888 
 488   0.0000       1.038357        28.2551 
 489   0.0000       1.039585        28.2885 
 490   0.0000       1.041893        28.3514 
 491   0.0000       1.043461        28.3940 
 492   0.0000       1.048025        28.5182 
 493   0.0000       1.052207        28.6320 
 494   0.0000       1.053828        28.6761 
 495   0.0000       1.055739        28.7281 
 496   0.0000       1.060839        28.8669 
 497   0.0000       1.062044        28.8997 
 498   0.0000       1.063453        28.9380 
 499   0.0000       1.067228        29.0407 
 500   0.0000       1.070269        29.1235 
 501   0.0000       1.075133        29.2559 
 502   0.0000       1.078216        29.3397 
 503   0.0000       1.078466        29.3466 
 504   0.0000       1.083858        29.4933 
 505   0.0000       1.084688        29.5159 
 506   0.0000       1.086243        29.5582 
 507   0.0000       1.089846        29.6562 
 508   0.0000       1.092870        29.7385 
 509   0.0000       1.094377        29.7795 
 510   0.0000       1.096592        29.8398 
 511   0.0000       1.099455        29.9177 
 512   0.0000       1.099980        29.9320 
 513   0.0000       1.103326        30.0230 
 514   0.0000       1.105846        30.0916 
 515   0.0000       1.110148        30.2087 
 516   0.0000       1.111844        30.2548 
 517   0.0000       1.115167        30.3452 
 518   0.0000       1.116255        30.3748 
 519   0.0000       1.118433        30.4341 
 520   0.0000       1.122551        30.5462 
 521   0.0000       1.125934        30.6382 
 522   0.0000       1.127219        30.6732 
 523   0.0000       1.133581        30.8463 
 524   0.0000       1.134563        30.8730 
 525   0.0000       1.138064        30.9683 
 526   0.0000       1.142413        31.0866 
 527   0.0000       1.147147        31.2154 
 528   0.0000       1.148459        31.2512 
 529   0.0000       1.149165        31.2704 
 530   0.0000       1.153161        31.3791 
 531   0.0000       1.157824        31.5060 
 532   0.0000       1.158312        31.5193 
 533   0.0000       1.163339        31.6561 
 534   0.0000       1.164688        31.6928 
 535   0.0000       1.168687        31.8016 
 536   0.0000       1.170379        31.8476 
 537   0.0000       1.172864        31.9153 
 538   0.0000       1.175429        31.9850 
 539   0.0000       1.180919        32.1344 
 540   0.0000       1.188086        32.3295 
 541   0.0000       1.190372        32.3917 
 542   0.0000       1.193466        32.4759 
 543   0.0000       1.196886        32.5689 
 544   0.0000       1.200325        32.6625 
 545   0.0000       1.204887        32.7867 
 546   0.0000       1.207702        32.8632 
 547   0.0000       1.208494        32.8848 
 548   0.0000       1.209085        32.9009 
 549   0.0000       1.213959        33.0335 
 550   0.0000       1.218754        33.1640 
 551   0.0000       1.221650        33.2428 
 552   0.0000       1.227277        33.3959 
 553   0.0000       1.229520        33.4569 
 554   0.0000       1.234890        33.6031 
 555   0.0000       1.235725        33.6258 
 556   0.0000       1.236893        33.6576 
 557   0.0000       1.238853        33.7109 
 558   0.0000       1.244051        33.8524 
 559   0.0000       1.245878        33.9021 
 560   0.0000       1.250650        34.0319 
 561   0.0000       1.252768        34.0896 
 562   0.0000       1.254590        34.1391 
 563   0.0000       1.259318        34.2678 
 564   0.0000       1.260035        34.2873 
 565   0.0000       1.262700        34.3598 
 566   0.0000       1.267099        34.4795 
 567   0.0000       1.271816        34.6079 
 568   0.0000       1.274663        34.6853 
 569   0.0000       1.277292        34.7569 
 570   0.0000       1.282309        34.8934 
 571   0.0000       1.286671        35.0121 
 572   0.0000       1.288986        35.0751 
 573   0.0000       1.292527        35.1715 
 574   0.0000       1.293400        35.1952 
 575   0.0000       1.302005        35.4293 
 576   0.0000       1.302921        35.4543 
 577   0.0000       1.304406        35.4947 
 578   0.0000       1.308703        35.6116 
 579   0.0000       1.310751        35.6674 
 580   0.0000       1.312589        35.7174 
 581   0.0000       1.317177        35.8422 
 582   0.0000       1.320473        35.9319 
 583   0.0000       1.326886        36.1064 
 584   0.0000       1.327535        36.1241 
 585   0.0000       1.332574        36.2612 
 586   0.0000       1.338230        36.4151 
 587   0.0000       1.341883        36.5145 
 588   0.0000       1.342931        36.5430 
 589   0.0000       1.344874        36.5959 
 590   0.0000       1.347690        36.6725 
 591   0.0000       1.351093        36.7651 
 592   0.0000       1.353834        36.8397 
 593   0.0000       1.357619        36.9427 
 594   0.0000       1.361991        37.0617 
 595   0.0000       1.369477        37.2654 
 596   0.0000       1.372769        37.3550 
 597   0.0000       1.377123        37.4734 
 598   0.0000       1.378658        37.5152 
 599   0.0000       1.385840        37.7106 
 600   0.0000       1.389775        37.8177 
 601   0.0000       1.390594        37.8400 
 602   0.0000       1.392396        37.8890 
 603   0.0000       1.397013        38.0147 
 604   0.0000       1.401206        38.1287 
 605   0.0000       1.406047        38.2605 
 606   0.0000       1.409234        38.3472 
 607   0.0000       1.411741        38.4154 
 608   0.0000       1.415265        38.5113 
 609   0.0000       1.419052        38.6144 
 610   0.0000       1.423198        38.7272 
 611   0.0000       1.427065        38.8324 
 612   0.0000       1.429646        38.9026 
 613   0.0000       1.432858        38.9901 
 614   0.0000       1.434754        39.0416 
 615   0.0000       1.440192        39.1896 
 616   0.0000       1.446824        39.3701 
 617   0.0000       1.448883        39.4261 
 618   0.0000       1.454980        39.5920 
 619   0.0000       1.456913        39.6446 
 620   0.0000       1.462437        39.7949 
 621   0.0000       1.463648        39.8279 
 622   0.0000       1.471579        40.0437 
 623   0.0000       1.473780        40.1036 
 624   0.0000       1.478453        40.2308 
 625   0.0000       1.480824        40.2953 
 626   0.0000       1.483112        40.3575 
 627   0.0000       1.487455        40.4757 
 628   0.0000       1.488921        40.5156 
 629   0.0000       1.494561        40.6691 
 630   0.0000       1.496353        40.7178 
 631   0.0000       1.501678        40.8627 
 632   0.0000       1.506315        40.9889 
 633   0.0000       1.512832        41.1662 
 634   0.0000       1.514797        41.2197 
 635   0.0000       1.518232        41.3132 
 636   0.0000       1.520479        41.3743 
 637   0.0000       1.525658        41.5153 
 638   0.0000       1.530153        41.6376 
 639   0.0000       1.532649        41.7055 
 640   0.0000       1.537014        41.8243 
 641   0.0000       1.539815        41.9005 
 642   0.0000       1.546595        42.0850 
[...]
      pz      :     0.626681  p :     2.265674
      px      :     0.813475
      py      :     0.825518
      dz2     :     0.094541  d :     0.710396
      dxz     :     0.128157
      dyz     :     0.069832
      dx2y2   :     0.236271
      dxy     :     0.181596
      f0      :     0.023768  f :     0.339616
      f+1     :     0.029030
      f-1     :     0.028372
      f+2     :     0.039622
      f-2     :     0.054908
      f+3     :     0.087614
      f-3     :     0.076302
 34 H s       :     0.650274  s :     0.650274
      pz      :     0.079965  p :     0.297843
      px      :     0.079951
      py      :     0.137928
      dz2     :     0.023278  d :     0.216964
      dxz     :     0.007920
      dyz     :     0.059751
      dx2y2   :     0.051488
      dxy     :     0.074528
 35 H s       :     0.619495  s :     0.619495
      pz      :     0.084593  p :     0.269984
      px      :     0.065894
      py      :     0.119496
      dz2     :     0.050927  d :     0.214040
      dxz     :     0.012637
      dyz     :     0.048788
      dx2y2   :     0.042344
      dxy     :     0.059343
 36 H s       :     0.609890  s :     0.609890
      pz      :     0.076637  p :     0.292051
      px      :     0.126839
      py      :     0.088575
      dz2     :     0.040523  d :     0.228866
      dxz     :     0.053737
      dyz     :     0.012732
      dx2y2   :     0.050816
      dxy     :     0.071058
 37 H s       :     0.606071  s :     0.606071
      pz      :     0.081318  p :     0.294830
      px      :     0.086375
      py      :     0.127137
      dz2     :     0.052745  d :     0.234089
      dxz     :     0.012967
      dyz     :     0.051006
      dx2y2   :     0.044994
      dxy     :     0.072376
 38 O s       :     3.186820  s :     3.186820
      pz      :     1.395371  p :     4.050965
      px      :     1.390937
      py      :     1.264657
      dz2     :     0.036858  d :     0.212278
      dxz     :     0.046999
      dyz     :     0.030447
      dx2y2   :     0.049402
      dxy     :     0.048572
      f0      :     0.005899  f :     0.074383
      f+1     :     0.015690
      f-1     :     0.005676
      f+2     :     0.007032
      f-2     :     0.014423
      f+3     :     0.012107
      f-3     :     0.013555
 39 H s       :     0.626561  s :     0.626561
      pz      :     0.112178  p :     0.328308
      px      :     0.128798
      py      :     0.087332
      dz2     :     0.054251  d :     0.253819
      dxz     :     0.059433
      dyz     :     0.037656
      dx2y2   :     0.056172
      dxy     :     0.046307


                      *****************************
                      * MAYER POPULATION ANALYSIS *
                      *****************************

  NA   - Mulliken gross atomic population
  ZA   - Total nuclear charge
  QA   - Mulliken gross atomic charge
  VA   - Mayer's total valence
  BVA  - Mayer's bonded valence
  FA   - Mayer's free valence

  ATOM       NA         ZA         QA         VA         BVA        FA
  0 C      5.9048     6.0000     0.0952     3.9782     3.9782     0.0000
  1 C      5.1320     6.0000     0.8680     2.0423     2.0423     0.0000
  2 C      4.8921     6.0000     1.1079     3.2551     3.2551     0.0000
  3 C      6.6064     6.0000    -0.6064    -0.0147    -0.0147    -0.0000
  4 H      0.7541     1.0000     0.2459     1.0686     1.0686    -0.0000
  5 C      5.3802     6.0000     0.6198     1.3865     1.3865     0.0000
  6 C      4.7735     6.0000     1.2265     1.1766     1.1766     0.0000
  7 C      6.2095     6.0000    -0.2095     1.4431     1.4431     0.0000
  8 C      7.2715     6.0000    -1.2715     2.3389     2.3389     0.0000
  9 S     13.8128    16.0000     2.1872     4.2551     4.2551    -0.0000
 10 O      9.0006     8.0000    -1.0006     1.2690     1.2690    -0.0000
 11 O      8.9922     8.0000    -0.9922     1.4023     1.4023     0.0000
 12 N      7.6418     7.0000    -0.6418     2.9344     2.9344    -0.0000
 13 H      0.8759     1.0000     0.1241     1.0957     1.0957    -0.0000
 14 H      0.7975     1.0000     0.2025     0.9764     0.9764     0.0000
 15 N      7.6505     7.0000    -0.6505     2.1548     2.1548     0.0000
 16 C      5.3230     6.0000     0.6770     2.9500     2.9500    -0.0000
 17 N      7.1606     7.0000    -0.1606     2.4170     2.4170    -0.0000
 18 H      0.8856     1.0000     0.1144     0.9527     0.9527     0.0000
 19 F      9.3842     9.0000    -0.3842     0.7997     0.7997    -0.0000
 20 F      9.4072     9.0000    -0.4072     0.8827     0.8827     0.0000
 21 F      9.4283     9.0000    -0.4283     0.8184     0.8184     0.0000
 22 H      0.9497     1.0000     0.0503     1.0644     1.0644     0.0000
 23 C      6.6817     6.0000    -0.6817     4.0485     4.0485    -0.0000
 24 C      4.3578     6.0000     1.6422     1.0080     1.0080     0.0000
 25 C      7.0529     6.0000    -1.0529     3.1053     3.1053     0.0000
 26 H      0.8398     1.0000     0.1602     1.0559     1.0559     0.0000
 27 C      6.6271     6.0000    -0.6271     3.1053     3.1053     0.0000
 28 H      0.4393     1.0000     0.5607     0.5471     0.5471     0.0000
 29 C      6.2167     6.0000    -0.2167     3.0223     3.0223     0.0000
 30 H      0.5627     1.0000     0.4373     0.7145     0.7145     0.0000
 31 C      6.6019     6.0000    -0.6019     2.9966     2.9966     0.0000
 32 H      0.3791     1.0000     0.6209     0.4640     0.4640    -0.0000
 33 C      6.9366     6.0000    -0.9366     3.1135     3.1135     0.0000
 34 H      0.8874     1.0000     0.1126     1.1918     1.1918     0.0000
 35 H      0.7029     1.0000     0.2971     0.9233     0.9233     0.0000
 36 H      0.6771     1.0000     0.3229     0.8887     0.8887     0.0000
 37 H      0.8701     1.0000     0.1299     1.0582     1.0582    -0.0000
 38 O      8.9903     8.0000    -0.9903     0.9735     0.9735    -0.0000
 39 H      0.9424     1.0000     0.0576     1.3950     1.3950     0.0000

  Mayer bond orders larger than 0.100000
B(  0-C ,  1-C ) :   0.9182 B(  0-C ,  3-C ) :  -0.1067 B(  0-C ,  5-C ) :  -0.1786 
B(  0-C ,  6-C ) :   0.8267 B(  0-C ,  8-C ) :   1.1304 B(  0-C ,  9-S ) :   0.8206 
B(  0-C , 10-O ) :   0.2393 B(  0-C , 11-O ) :   0.2691 B(  0-C , 12-N ) :   0.1246 
B(  0-C , 21-F ) :   0.3242 B(  0-C , 24-C ) :   0.1634 B(  0-C , 25-C ) :  -0.2736 
B(  0-C , 26-H ) :   0.2595 B(  0-C , 28-H ) :  -0.2755 B(  0-C , 30-H ) :   0.3218 
B(  0-C , 32-H ) :  -0.3958 B(  0-C , 33-C ) :   0.1517 B(  0-C , 34-H ) :   0.1881 
B(  0-C , 38-O ) :  -0.3561 B(  0-C , 39-H ) :  -0.1196 B(  1-C ,  2-C ) :   0.7835 
B(  1-C ,  3-C ) :   0.6105 B(  1-C ,  4-H ) :  -0.1361 B(  1-C ,  5-C ) :   0.4981 
B(  1-C ,  6-C ) :  -0.1663 B(  1-C ,  8-C ) :  -0.2576 B(  1-C ,  9-S ) :  -0.1409 
B(  1-C , 12-N ) :  -0.1245 B(  1-C , 15-N ) :  -0.1013 B(  1-C , 19-F ) :   0.4377 
B(  1-C , 20-F ) :   0.1719 B(  1-C , 21-F ) :  -0.2597 B(  1-C , 24-C ) :  -0.1794 
B(  1-C , 25-C ) :   0.1287 B(  1-C , 26-H ) :  -0.1229 B(  1-C , 27-C ) :   0.1273 
B(  1-C , 28-H ) :  -0.1218 B(  1-C , 29-C ) :   0.1313 B(  1-C , 30-H ) :  -0.3178 
B(  1-C , 31-C ) :   0.1663 B(  1-C , 32-H ) :   0.1355 B(  2-C , 19-F ) :   0.6421 
B(  2-C , 20-F ) :   0.7853 B(  2-C , 21-F ) :   0.8116 B(  2-C , 26-H ) :  -0.1428 
B(  2-C , 28-H ) :   0.1304 B(  3-C ,  4-H ) :   1.0395 B(  3-C ,  5-C ) :  -0.5949 
B(  3-C ,  6-C ) :   0.3404 B(  3-C ,  9-S ) :  -0.1055 B(  3-C , 11-O ) :  -0.1266 
B(  3-C , 15-N ) :  -0.3754 B(  3-C , 17-N ) :   0.1793 B(  3-C , 19-F ) :  -0.2204 
B(  3-C , 21-F ) :  -0.1627 B(  3-C , 24-C ) :   0.1343 B(  3-C , 26-H ) :   0.2006 
B(  3-C , 28-H ) :  -0.4170 B(  3-C , 30-H ) :   0.3028 B(  3-C , 32-H ) :  -0.3537 
B(  3-C , 34-H ) :   0.2124 B(  4-H ,  5-C ) :  -0.1102 B(  5-C ,  6-C ) :   0.2489 
B(  5-C ,  7-C ) :   0.7006 B(  5-C ,  8-C ) :  -0.2520 B(  5-C , 15-N ) :   0.7460 
B(  5-C , 17-N ) :   0.3114 B(  5-C , 19-F ) :  -0.1091 B(  5-C , 23-C ) :   0.1916 
B(  5-C , 25-C ) :   0.1644 B(  5-C , 26-H ) :  -0.1620 B(  5-C , 27-C ) :  -0.1211 
B(  5-C , 34-H ) :  -0.2135 B(  5-C , 38-O ) :   0.1620 B(  6-C ,  7-C ) :  -0.7920 
B(  6-C , 16-C ) :   0.2351 B(  6-C , 17-N ) :  -0.6851 B(  6-C , 23-C ) :  -0.1171 
B(  6-C , 26-H ) :   0.1117 B(  6-C , 28-H ) :   0.1360 B(  6-C , 29-C ) :  -0.1833 
B(  6-C , 30-H ) :   0.1230 B(  6-C , 32-H ) :   0.2435 B(  6-C , 33-C ) :  -0.2145 
B(  6-C , 34-H ) :  -0.1789 B(  6-C , 38-O ) :   0.9542 B(  6-C , 39-H ) :  -0.2083 
B(  7-C ,  8-C ) :   0.1105 B(  7-C , 16-C ) :  -0.2267 B(  7-C , 17-N ) :   1.2003 
B(  7-C , 26-H ) :  -0.1247 B(  7-C , 30-H ) :  -0.1190 B(  7-C , 38-O ) :   0.7430 
B(  8-C ,  9-S ) :   0.2444 B(  8-C , 21-F ) :   0.1468 B(  8-C , 26-H ) :  -0.1294 
B(  8-C , 27-C ) :  -0.1166 B(  8-C , 28-H ) :   0.5908 B(  8-C , 30-H ) :  -0.3101 
B(  8-C , 31-C ) :  -0.1786 B(  8-C , 32-H ) :   0.2606 B(  8-C , 38-O ) :  -0.4856 
B(  8-C , 39-H ) :   1.6289 B(  9-S , 10-O ) :   1.0754 B(  9-S , 11-O ) :   1.2369 
B(  9-S , 12-N ) :   0.9146 B( 12-N , 13-H ) :   0.9809 B( 12-N , 14-H ) :   0.9058 
B( 15-N , 16-C ) :   0.6716 B( 15-N , 18-H ) :   0.9722 B( 15-N , 23-C ) :   0.1675 
B( 16-C , 17-N ) :   0.4982 B( 16-C , 23-C ) :   0.7138 B( 16-C , 24-C ) :   0.1183 
B( 16-C , 25-C ) :  -0.1471 B( 16-C , 35-H ) :   0.8742 B( 17-N , 22-H ) :   1.0393 
B( 17-N , 38-O ) :  -0.1846 B( 23-C , 24-C ) :   0.4099 B( 23-C , 25-C ) :   0.2173 
B( 23-C , 33-C ) :   0.3375 B( 23-C , 36-H ) :   0.9630 B( 23-C , 37-H ) :   1.1622 
B( 24-C , 25-C ) :   0.4770 B( 24-C , 26-H ) :  -0.1391 B( 24-C , 31-C ) :   0.1112 
B( 24-C , 33-C ) :   0.4033 B( 24-C , 34-H ) :  -0.1756 B( 25-C , 26-H ) :   1.1764 
B( 25-C , 27-C ) :   1.4455 B( 25-C , 33-C ) :  -0.3007 B( 27-C , 28-H ) :   0.6114 
B( 27-C , 29-C ) :   1.1405 B( 27-C , 30-H ) :  -0.1160 B( 27-C , 31-C ) :   0.1010 
B( 29-C , 30-H ) :   0.7654 B( 29-C , 31-C ) :   1.1595 B( 29-C , 33-C ) :  -0.1132 
B( 30-H , 31-C ) :  -0.1129 B( 31-C , 32-H ) :   0.5556 B( 31-C , 33-C ) :   1.2796 
B( 32-H , 33-C ) :  -0.1117 B( 33-C , 34-H ) :   1.4505 

-------
TIMINGS
-------

Total SCF time: 0 days 0 hours 15 min 54 sec 

Total time                  ....     954.827 sec
Sum of individual times     ....     948.129 sec  ( 99.3%)

Fock matrix formation       ....     925.349 sec  ( 96.9%)
  Split-RI-J                ....      54.663 sec  (  5.9% of F)
  Chain of spheres X        ....     786.830 sec  ( 85.0% of F)
  XC integration            ....      80.851 sec  (  8.7% of F)
    Basis function eval.    ....      11.744 sec  ( 14.5% of XC)
    Density eval.           ....      39.318 sec  ( 48.6% of XC)
    XC-Functional eval.     ....       0.493 sec  (  0.6% of XC)
    XC-Potential eval.      ....      24.685 sec  ( 30.5% of XC)
Diagonalization             ....       3.183 sec  (  0.3%)
Density matrix formation    ....       0.500 sec  (  0.1%)
Population analysis         ....       0.668 sec  (  0.1%)
Initial guess               ....       4.461 sec  (  0.5%)
Orbital Transformation      ....       0.000 sec  (  0.0%)
Orbital Orthonormalization  ....       0.000 sec  (  0.0%)
DIIS solution               ....       2.235 sec  (  0.2%)
SOSCF solution              ....       3.927 sec  (  0.4%)
Grid generation             ....       7.806 sec  (  0.8%)

Maximum memory used throughout the entire SCF-calculation: 486.7 MB


           ************************************************************
           *        Program running with 8 parallel MPI-processes     *
           *              working on a common directory               *
           ************************************************************

------------------------------------------------------------------------------
                                ORCA  MP2 
------------------------------------------------------------------------------

Freezing NCore=60 chemical core electrons

   <<< Use J-auxbasis for calculation of Separable RI-J derivative contributions (Dim=1430) >>> 


-------------
RI-MP2 ENERGY
-------------
Dimension of the basis                    ... 1522
Memory devoted to MP2                     ... 3000 MB   
Data format for buffers                   ... DOUBLE
Compression type for matrix containers    ... UNCOMPRESSED
Scaling for aa/bb pairs                   ...   2.500e-01
Scaling for ab pairs                      ...   5.300e-01
Overall scaling of the MP2 energy         ...   1.000e+00
Calculating two index integrals           ... done (    0.125 sec)
Cholesky decomposition of V**-1           ... done (    1.153 sec)

-----------------
RI-TRANSFORMATION (AUX index driven)
-----------------

Dimension of the orbital-basis         ... 1522
Dimension of the aux-basis             ... 3441
Transformation of internal/external MOs...   30-  98 to   99-1521
Number Format for Storage              ... Double (8 Byte)
Integral mode                          ... Direct

First Phase: integral generation and transformation of MO indices
  Aux angular momentum 0               ... done (    2.444 sec)
  Aux angular momentum 1               ... done (    4.561 sec)
  Aux angular momentum 2               ... done (    6.345 sec)
  Aux angular momentum 3               ... done (    5.893 sec)
  Aux angular momentum 4               ... done (    3.150 sec)
Closing buffer VIA ( 2.52 GB; CompressionRatio= 1.00)
  Phase 1 completed in    23.193 sec
Second Phase: sorting and transformation of aux index

IA-Transformation
Memory available                       ... 2815 MB 
Max. # MO pairs treated in a batch     ... 9    
# of internal orbitals                 ... 69
# batches for internal orbitals        ... 1
Closing buffer IAV ( 2.52 GB; CompressionRatio= 1.00)
(ia|v) transformation done in     5.629 sec

  Phase 2 completed in     6.114 sec
RI-Integral transformation completed in    29.322 sec
Opening buffers                              ... done

Starting loop over batches of integrals:

Operator 0  - window                       ... ( 30- 98)x( 99-1521)
Operator 0  - Memory available             ...  3000 MB
Operator 0  - Memory needed per MO         ...  37.4 MB
Operator 0  - Number of orbitals per batch ... 9
Operator 0  - Number of batches            ... 1

OPERATOR  0   PASS   0:  MOs    30 ...   38 +   39 ...   47 +   48 ...   56 +   57 ...   65
                            +   66 ...   74 +   75 ...   83 +   84 ...   92 +   93 ...   98
  Reading integrals       ... ok
  Internal MO  32
  Internal MO  35
  Internal MO  38
Time spent in pair loops =    10.961 sec
Deleting buffer (Ka|jb)[aa] ...done

-----------------------------------------------
 RI-MP2 CORRELATION ENERGY:     -2.494847122 Eh
-----------------------------------------------


-------
TIMINGS
-------

Total time                :  156.620 sec
Integral trafo            :   29.340 sec ( 18.7%)
I/O of integrals          :    0.235 sec (  0.1%)
K(i,j) Operators          :    9.221 sec (  5.9%)
T(i,j) pair energies      :    1.018 sec (  0.6%)
V-calculation             :    0.125 sec (  0.1%)
V**(-1/2)                 :    1.153 sec (  0.7%)
Gamma(ia|P)               :    0.000 sec (  0.0%)
Gamma-Trafo               :    0.000 sec (  0.0%)
D(virtual)                :    0.000 sec (  0.0%)
D(internal)               :    0.000 sec (  0.0%)
W(virtual)                :    0.000 sec (  0.0%)
W(internal)               :    0.000 sec (  0.0%)
L(virtual)                :    0.000 sec (  0.0%)
L(internal)               :    0.000 sec (  0.0%)
G(D)                      :    0.000 sec (  0.0%)
G(Z)                      :    0.000 sec (  0.0%)
Z-Vector Solution         :    0.000 sec (  0.0%)
3-Index Derivative        :    0.000 sec (  0.0%)
2-Index Derivative        :    0.000 sec (  0.0%)
Separable Gradient (RIJ)  :    0.000 sec (  0.0%)
Separable Gradient (COSX) :    0.000 sec (  0.0%)


---------------------------------------
MP2 TOTAL ENERGY:    -1703.860558492 Eh
---------------------------------------

Maximum memory used throughout the entire MP2-calculation: 635.9 MB


-------------------------------------------------------------------------------
                          DFT DISPERSION CORRECTION                            
                                                                               
                              DFTD3 V3.1  Rev 1                                
                          USING Becke-Johnson damping                          
-------------------------------------------------------------------------------
The DSD-PBEP86 functional is recognized
Active option DFTDOPT                   ...         4   

molecular C6(AA) [au] = 20560.272562 


            DFT-D V3
 parameters
 s6 scaling factor         :     0.4180 
 a1 scaling factor         :     0.0000 
 s8 scaling factor         :     0.0000 
 a2 scaling factor         :     5.6500 
 ad hoc parameters k1-k3   :    16.0000     1.3333    -4.0000 

 Edisp/kcal,au: -20.292279580219  -0.032337802463 
 E6   /kcal   : -20.292279580 
 E8   /kcal   :  -0.000000000 
 % E8         :   0.000000000 

-------------------------   ----------------
Dispersion correction           -0.032337802
-------------------------   ----------------


-------------------------   --------------------
FINAL SINGLE POINT ENERGY     -1703.892896294409
-------------------------   --------------------


                            ***************************************
                            *     ORCA property calculations      *
                            ***************************************


  WARNING: The energy has been calculated at the MP2 level but the densities
           used in the property calculations are still SCF densities
           MP2 response densities have not been calculated 
           use %mp2 Density relaxed end
           or  %mp2 Density unrelaxed end

                                    ---------------------
                                    Active property flags
                                    ---------------------
   (+) Dipole Moment


------------------------------------------------------------------------------
                       ORCA ELECTRIC PROPERTIES CALCULATION
------------------------------------------------------------------------------

Dipole Moment Calculation                       ... on
Quadrupole Moment Calculation                   ... off
Polarizability Calculation                      ... off
GBWName                                         ... HA.33.avtz.gbw
Electron density                                ... HA.33.avtz.scfp
The origin for moment calculation is the CENTER OF MASS  = (-3.342982,  0.035836 -5.564562)

-------------
DIPOLE MOMENT
-------------
                                X             Y             Z
Electronic contribution:    -14.81859      14.27049      30.19257
Nuclear contribution   :     14.66077     -17.71800     -33.19207
                        -----------------------------------------
Total Dipole Moment    :     -0.15782      -3.44751      -2.99950
                        -----------------------------------------
Magnitude (a.u.)       :      4.57245
Magnitude (Debye)      :     11.62223



--------------------
Rotational spectrum 
--------------------
 
Rotational constants in cm-1:     0.011110     0.003365     0.002757 
Rotational constants in MHz :   333.083015   100.873464    82.647935 

 Dipole components along the rotational axes: 
x,y,z [a.u.] :    -4.144188     1.163814     1.542240 
x,y,z [Debye]:   -10.533688     2.958180     3.920062 

 

Timings for individual modules:

Sum of individual times         ...     1121.231 sec (=  18.687 min)
GTO integral calculation        ...        6.250 sec (=   0.104 min)   0.6 %
SCF iterations                  ...      956.332 sec (=  15.939 min)  85.3 %
MP2 module                      ...      158.650 sec (=   2.644 min)  14.1 %
                             ****ORCA TERMINATED NORMALLY****
TOTAL RUN TIME: 0 days 0 hours 18 minutes 45 seconds 473 msec
