
                                 *****************
                                 * O   R   C   A *
                                 *****************

                                            #,                                       
                                            ###                                      
                                            ####                                     
                                            #####                                    
                                            ######                                   
                                           ########,                                 
                                     ,,################,,,,,                         
                               ,,#################################,,                 
                          ,,##########################################,,             
                       ,#########################################, ''#####,          
                    ,#############################################,,   '####,        
                  ,##################################################,,,,####,       
                ,###########''''           ''''###############################       
              ,#####''   ,,,,##########,,,,          '''####'''          '####       
            ,##' ,,,,###########################,,,                        '##       
           ' ,,###''''                  '''############,,,                           
         ,,##''                                '''############,,,,        ,,,,,,###''
      ,#''                                            '''#######################'''  
     '                                                          ''''####''''         
             ,#######,   #######,   ,#######,      ##                                
            ,#'     '#,  ##    ##  ,#'     '#,    #''#        ######   ,####,        
            ##       ##  ##   ,#'  ##            #'  '#       #        #'  '#        
            ##       ##  #######   ##           ,######,      #####,   #    #        
            '#,     ,#'  ##    ##  '#,     ,#' ,#      #,         ##   #,  ,#        
             '#######'   ##     ##  '#######'  #'      '#     #####' # '####'        



                  #######################################################
                  #                        -***-                        #
                  #          Department of theory and spectroscopy      #
                  #    Directorship and core code : Frank Neese         #
                  #        Max Planck Institute fuer Kohlenforschung    #
                  #                Kaiser Wilhelm Platz 1               #
                  #                 D-45470 Muelheim/Ruhr               #
                  #                      Germany                        #
                  #                                                     #
                  #                  All rights reserved                #
                  #                        -***-                        #
                  #######################################################


                         Program Version 5.0.3 -  RELEASE  -


 With contributions from (in alphabetic order):
   Daniel Aravena         : Magnetic Suceptibility
   Michael Atanasov       : Ab Initio Ligand Field Theory (pilot matlab implementation)
   Alexander A. Auer      : GIAO ZORA, VPT2 properties, NMR spectrum
   Ute Becker             : Parallelization
   Giovanni Bistoni       : ED, misc. LED, open-shell LED, HFLD
   Martin Brehm           : Molecular dynamics
   Dmytro Bykov           : SCF Hessian
   Vijay G. Chilkuri      : MRCI spin determinant printing, contributions to CSF-ICE
   Dipayan Datta          : RHF DLPNO-CCSD density
   Achintya Kumar Dutta   : EOM-CC, STEOM-CC
   Dmitry Ganyushin       : Spin-Orbit,Spin-Spin,Magnetic field MRCI
   Miquel Garcia          : C-PCM and meta-GGA Hessian, CC/C-PCM, Gaussian charge scheme
   Yang Guo               : DLPNO-NEVPT2, F12-NEVPT2, CIM, IAO-localization
   Andreas Hansen         : Spin unrestricted coupled pair/coupled cluster methods
   Benjamin Helmich-Paris : MC-RPA, TRAH-SCF, COSX integrals
   Lee Huntington         : MR-EOM, pCC
   Robert Izsak           : Overlap fitted RIJCOSX, COSX-SCS-MP3, EOM
   Marcus Kettner         : VPT2
   Christian Kollmar      : KDIIS, OOCD, Brueckner-CCSD(T), CCSD density, CASPT2, CASPT2-K
   Simone Kossmann        : Meta GGA functionals, TD-DFT gradient, OOMP2, MP2 Hessian
   Martin Krupicka        : Initial AUTO-CI
   Lucas Lang             : DCDCAS
   Marvin Lechner         : AUTO-CI (C++ implementation), FIC-MRCC
   Dagmar Lenk            : GEPOL surface, SMD
   Dimitrios Liakos       : Extrapolation schemes; Compound Job, initial MDCI parallelization
   Dimitrios Manganas     : Further ROCIS development; embedding schemes
   Dimitrios Pantazis     : SARC Basis sets
   Anastasios Papadopoulos: AUTO-CI, single reference methods and gradients
   Taras Petrenko         : DFT Hessian,TD-DFT gradient, ASA, ECA, R-Raman, ABS, FL, XAS/XES, NRVS
   Peter Pinski           : DLPNO-MP2, DLPNO-MP2 Gradient
   Christoph Reimann      : Effective Core Potentials
   Marius Retegan         : Local ZFS, SOC
   Christoph Riplinger    : Optimizer, TS searches, QM/MM, DLPNO-CCSD(T), (RO)-DLPNO pert. Triples
   Tobias Risthaus        : Range-separated hybrids, TD-DFT gradient, RPA, STAB
   Michael Roemelt        : Original ROCIS implementation
   Masaaki Saitow         : Open-shell DLPNO-CCSD energy and density
   Barbara Sandhoefer     : DKH picture change effects
   Avijit Sen             : IP-ROCIS
   Kantharuban Sivalingam : CASSCF convergence, NEVPT2, FIC-MRCI
   Bernardo de Souza      : ESD, SOC TD-DFT
   Georgi Stoychev        : AutoAux, RI-MP2 NMR, DLPNO-MP2 response
   Willem Van den Heuvel  : Paramagnetic NMR
   Boris Wezisla          : Elementary symmetry handling
   Frank Wennmohs         : Technical directorship


 We gratefully acknowledge several colleagues who have allowed us to
 interface, adapt or use parts of their codes:
   Stefan Grimme, W. Hujo, H. Kruse, P. Pracht,  : VdW corrections, initial TS optimization,
                  C. Bannwarth, S. Ehlert          DFT functionals, gCP, sTDA/sTD-DF
   Ed Valeev, F. Pavosevic, A. Kumar             : LibInt (2-el integral package), F12 methods
   Garnet Chan, S. Sharma, J. Yang, R. Olivares  : DMRG
   Ulf Ekstrom                                   : XCFun DFT Library
   Mihaly Kallay                                 : mrcc  (arbitrary order and MRCC methods)
   Jiri Pittner, Ondrej Demel                    : Mk-CCSD
   Frank Weinhold                                : gennbo (NPA and NBO analysis)
   Christopher J. Cramer and Donald G. Truhlar   : smd solvation model
   Lars Goerigk                                  : TD-DFT with DH, B97 family of functionals
   V. Asgeirsson, H. Jonsson                     : NEB implementation
   FAccTs GmbH                                   : IRC, NEB, NEB-TS, DLPNO-Multilevel, CI-OPT
                                                   MM, QMMM, 2- and 3-layer-ONIOM, Crystal-QMMM,
                                                   LR-CPCM, SF, NACMEs, symmetry and pop. for TD-DFT,
                                                   nearIR, NL-DFT gradient (VV10), updates on ESD,
                                                   ML-optimized integration grids
   S Lehtola, MJT Oliveira, MAL Marques          : LibXC Library
   Liviu Ungur et al                             : ANISO software


 Your calculation uses the libint2 library for the computation of 2-el integrals
 For citations please refer to: http://libint.valeyev.net

 Your ORCA version has been built with support for libXC version: 5.1.0
 For citations please refer to: https://tddft.org/programs/libxc/

 This ORCA versions uses:
   CBLAS   interface :  Fast vector & matrix operations
   LAPACKE interface :  Fast linear algebra routines
   SCALAPACK package :  Parallel linear algebra routines
   Shared memory     :  Shared parallel matrices
   BLAS/LAPACK       :  OpenBLAS 0.3.15  USE64BITINT DYNAMIC_ARCH NO_AFFINITY SkylakeX SINGLE_THREADED
        Core in use  :  SkylakeX
   Copyright (c) 2011-2014, The OpenBLAS Project


Your calculation utilizes the atom-pairwise dispersion correction
with the Becke-Johnson damping scheme (D3BJ)
Cite in your paper:
S.Grimme, S.Ehrlich, L.Goerigk, J Comput Chem, (2011), 32, 1456–1465 
S.Grimme, J.Antony, S.Ehrlich and H.Krieg, J.Chem.Phys., 132, (2010), 154104 
   

================================================================================

----- Orbital basis set information -----
Your calculation utilizes the basis: aug-cc-pVTZ 
    H, B-Ne : Obtained from the ccRepo (grant-hill.group.shef.ac.uk/ccrepo) Feb. 2017
              R. A. Kendall, T. H. Dunning, Jr., R. J. Harrison, J. Chem. Phys. 96, 6796 (1992)
         He : Obtained from the ccRepo (grant-hill.group.shef.ac.uk/ccrepo) Feb. 2017
              D. E. Woon, T. H. Dunning, Jr., J. Chem. Phys. 100, 2975 (1994)
  Li-Be, Na : Obtained from the ccRepo (grant-hill.group.shef.ac.uk/ccrepo) Feb. 2017
              B. P. Prascher, D. E. Woon, K. A. Peterson, T. H. Dunning, Jr., A. K. Wilson, Theor. Chem. Acc. 128, 69 (2011)
         Mg : Obtained from the Peterson Research Group Website (tyr0.chem.wsu.edu/~kipeters) Feb. 2017
              B. P. Prascher, D. E. Woon, K. A. Peterson, T. H. Dunning, Jr., A. K. Wilson, Theor. Chem. Acc. 128, 69 (2011)
      Al-Ar : Obtained from the ccRepo (grant-hill.group.shef.ac.uk/ccrepo) Feb. 2017
              D. E. Woon, T. H. Dunning, Jr., J. Chem. Phys. 98, 1358 (1993)
      Sc-Zn : Obtained from the ccRepo (grant-hill.group.shef.ac.uk/ccrepo) Feb. 2017
              N. B. Balabanov, K. A. Peterson, J. Chem. Phys. 123, 064107 (2005)
              N. B. Balabanov, K. A. Peterson, J. Chem. Phys. 125, 074110 (2006)
      Ga-Kr : Obtained from the ccRepo (grant-hill.group.shef.ac.uk/ccrepo) Feb. 2017
              A. K. Wilson, D. E. Woon, K. A. Peterson, T. H. Dunning, Jr., J. Chem. Phys. 110, 7667 (1999)
     Ag, Au : Obtained from the Peterson Research Group Website (tyr0.chem.wsu.edu/~kipeters) Feb. 2017
              K. A. Peterson, C. Puzzarini, Theor. Chem. Acc. 114, 283 (2005)

----- AuxJ basis set information -----
Your calculation utilizes the auxiliary basis: def2/J
   F. Weigend, Phys. Chem. Chem. Phys. 8, 1057 (2006).

----- AuxC basis set information -----
Your calculation utilizes the auxiliary basis: aug-cc-pVTZ/C 
  H-He, B-F, Al-Ar, Ga-Kr : Obtained from the EMSL Basis Set Exchange (bse.pnl.gov) Feb. 2017
                            F. Weigend, A. Kohn, C. Hattig, J. Chem. Phys. 116, 3175 (2002)
                   Be, Mg : Obtained from the TURBOMOLE 7.0 basis set library
                            C. Haettig, Phys. Chem. Chem. Phys. 7, 59 (2005)
                       Ne : Obtained from the EMSL Basis Set Exchange (bse.pnl.gov) Feb. 2017
                            C. Haettig, Phys. Chem. Chem. Phys. 7, 59 (2005)
                            F. Weigend, A. Kohn, C. Hattig, J. Chem. Phys. 116, 3175 (2002)
                    Sc-Zn : Obtained from the EMSL Basis Set Exchange (bse.pnl.gov) Feb. 2017
                            J. G. Hill, J. A. Platts, J. Chem. Phys. 128, 044104 (2008)

================================================================================
                                        WARNINGS
                       Please study these warnings very carefully!
================================================================================


WARNING: No MP2 level density has been requested!
         To caclulate MP2 level properties use
         %mp2 Density relaxed end
         or
         %mp2 Density unrelaxed end
         Otherwise for double-hybrid DFT only the energy is correct!

WARNING: There are different parametrizations of Gershom Martin's DSD-DFs
         for use with and without D3(BJ)!
         You are using the D3(BJ) parametrized version,
         consistent with the GMTKN55 benchmark (L. Goerigk et al., PCCP 2017, 19, 32184)

WARNING: The frozen-core approximation is turned on by default for 
         the MP2 part of double-hybrid DFT.

INFO   : the flag for use of the SHARK integral package has been found!

================================================================================
                                       INPUT FILE
================================================================================
NAME = HA.37.avtz.com
|  1> !PAL8
|  2> !RI-DSD-PBEP86 D3BJ aug-cc-pVTZ aug-cc-pVTZ/C TightSCF
|  3> %maxcore 3000
|  4> 
|  5> 
|  6> * xyz 0 1
|  7> C -1.5836051893  1.0567282909 -1.0072975611
|  8> C -2.5090515043  1.6154837993 -1.8982665564
|  9> Cl -3.668838779  2.7878127326 -1.3783636576
| 10> C -2.5022145702  1.2291768266 -3.2367268272
| 11> H -3.215897588  1.6801972335 -3.9180182881
| 12> C -1.5993484743  0.2686181955 -3.6835734293
| 13> C -0.6946558154 -0.3099545265 -2.7961167081
| 14> C -0.6750229442  0.1148876525 -1.4664712886
| 15> S -1.613628403  1.4798744645  0.7464580067
| 16> O -1.2216080185  2.8702257575  0.8709964868
| 17> O -2.8681440465  0.9682778952  1.2658334207
| 18> N -0.4268342345  0.599428878  1.4733943089
| 19> H  0.5271871151  0.888375105  1.2840030807
| 20> H -0.569433265 -0.406398573  1.5349884413
| 21> H  0.0544300003 -0.2871962416 -0.7767762712
| 22> H -1.5937919771 -0.0443824943 -4.7233796703
| 23> C  0.2259760916 -1.3689702919 -3.3230483863
| 24> N  0.6702800806 -2.3307082331 -2.4283553638
| 25> O  0.5952031406 -1.3935983651 -4.4814501337
| 26> N -0.0214126076 -2.6256445659 -1.2795165313
| 27> C -0.9967123521 -3.7339323866 -1.2641469491
| 28> C -1.3759660323 -3.7923838711  0.2315265926
| 29> C -0.1580538971 -3.2132269276  0.9204275624
| 30> C  0.6224863505 -2.5570117617 -0.0402907248
| 31> C -2.1561414122 -3.4799138838 -2.2095769891
| 32> C  1.7941263187 -1.8863870421  0.2886800646
| 33> C  2.1727022596 -1.8731327985  1.6380573614
| 34> C  1.4005591596 -2.5064227546  2.6101725646
| 35> C  0.225657849 -3.1852581783  2.2506197842
| 36> H  1.2346562323 -3.0679862135 -2.8530317484
| 37> H -0.4743392328 -4.6654241416 -1.5475577625
| 38> H -1.6230889834 -4.8062976801  0.5559415794
| 39> H -2.2525723107 -3.1547737457  0.413286756
| 40> H -1.8135706412 -3.3980020435 -3.2469207555
| 41> H -2.6711037109 -2.5523109411 -1.9376362751
| 42> H -2.8710567115 -4.3069597232 -2.1587892557
| 43> H  2.391601801 -1.3989729266 -0.4768862944
| 44> H  3.0870366963 -1.3629313551  1.9270775862
| 45> H  1.7113558945 -2.4801805727  3.6494305711
| 46> H -0.3747862887 -3.6813165923  3.0087532599
| 47> *
| 48> 
| 49>                          ****END OF INPUT****
================================================================================

                       ****************************
                       * Single Point Calculation *
                       ****************************

---------------------------------
CARTESIAN COORDINATES (ANGSTROEM)
---------------------------------
  C     -1.583605    1.056728   -1.007298
  C     -2.509052    1.615484   -1.898267
  Cl    -3.668839    2.787813   -1.378364
  C     -2.502215    1.229177   -3.236727
  H     -3.215898    1.680197   -3.918018
  C     -1.599348    0.268618   -3.683573
  C     -0.694656   -0.309955   -2.796117
  C     -0.675023    0.114888   -1.466471
  S     -1.613628    1.479874    0.746458
  O     -1.221608    2.870226    0.870996
  O     -2.868144    0.968278    1.265833
  N     -0.426834    0.599429    1.473394
  H      0.527187    0.888375    1.284003
  H     -0.569433   -0.406399    1.534988
  H      0.054430   -0.287196   -0.776776
  H     -1.593792   -0.044382   -4.723380
  C      0.225976   -1.368970   -3.323048
  N      0.670280   -2.330708   -2.428355
  O      0.595203   -1.393598   -4.481450
  N     -0.021413   -2.625645   -1.279517
  C     -0.996712   -3.733932   -1.264147
  C     -1.375966   -3.792384    0.231527
  C     -0.158054   -3.213227    0.920428
  C      0.622486   -2.557012   -0.040291
  C     -2.156141   -3.479914   -2.209577
  C      1.794126   -1.886387    0.288680
  C      2.172702   -1.873133    1.638057
  C      1.400559   -2.506423    2.610173
  C      0.225658   -3.185258    2.250620
  H      1.234656   -3.067986   -2.853032
  H     -0.474339   -4.665424   -1.547558
  H     -1.623089   -4.806298    0.555942
  H     -2.252572   -3.154774    0.413287
  H     -1.813571   -3.398002   -3.246921
  H     -2.671104   -2.552311   -1.937636
  H     -2.871057   -4.306960   -2.158789
  H      2.391602   -1.398973   -0.476886
  H      3.087037   -1.362931    1.927078
  H      1.711356   -2.480181    3.649431
  H     -0.374786   -3.681317    3.008753

----------------------------
CARTESIAN COORDINATES (A.U.)
----------------------------
  NO LB      ZA    FRAG     MASS         X           Y           Z
   0 C     6.0000    0    12.011   -2.992580    1.996927   -1.903517
   1 C     6.0000    0    12.011   -4.741420    3.052822   -3.587204
   2 Cl   17.0000    0    35.453   -6.933101    5.268203   -2.604730
   3 C     6.0000    0    12.011   -4.728500    2.322808   -6.116527
   4 H     1.0000    0     1.008   -6.077166    3.175113   -7.403982
   5 C     6.0000    0    12.011   -3.022331    0.507615   -6.960945
   6 C     6.0000    0    12.011   -1.312709   -0.585729   -5.283895
   7 C     6.0000    0    12.011   -1.275608    0.217106   -2.771229
   8 S    16.0000    0    32.060   -3.049316    2.796557    1.410601
   9 O     8.0000    0    15.999   -2.308505    5.423941    1.645945
  10 O     8.0000    0    15.999   -5.420007    1.829780    2.392078
  11 N     7.0000    0    14.007   -0.806600    1.132756    2.784312
  12 H     1.0000    0     1.008    0.996239    1.678786    2.426414
  13 H     1.0000    0     1.008   -1.076073   -0.767982    2.900708
  14 H     1.0000    0     1.008    0.102858   -0.542722   -1.467894
  15 H     1.0000    0     1.008   -3.011830   -0.083871   -8.925894
  16 C     6.0000    0    12.011    0.427033   -2.586979   -6.279651
  17 N     7.0000    0    14.007    1.266646   -4.404400   -4.588927
  18 O     8.0000    0    15.999    1.124771   -2.633519   -8.468713
  19 N     7.0000    0    14.007   -0.040464   -4.961749   -2.417936
  20 C     6.0000    0    12.011   -1.883513   -7.056110   -2.388892
  21 C     6.0000    0    12.011   -2.600199   -7.166567    0.437522
  22 C     6.0000    0    12.011   -0.298679   -6.072119    1.739356
  23 C     6.0000    0    12.011    1.176329   -4.832052   -0.076138
  24 C     6.0000    0    12.011   -4.074517   -6.576084   -4.175495
  25 C     6.0000    0    12.011    3.390407   -3.564755    0.545526
  26 C     6.0000    0    12.011    4.105812   -3.539708    3.095480
  27 C     6.0000    0    12.011    2.646673   -4.736453    4.932511
  28 C     6.0000    0    12.011    0.426432   -6.019266    4.253055
  29 H     1.0000    0     1.008    2.333162   -5.797654   -5.391449
  30 H     1.0000    0     1.008   -0.896371   -8.816374   -2.924460
  31 H     1.0000    0     1.008   -3.067194   -9.082586    1.050577
  32 H     1.0000    0     1.008   -4.256745   -5.961658    0.780999
  33 H     1.0000    0     1.008   -3.427152   -6.421293   -6.135791
  34 H     1.0000    0     1.008   -5.047654   -4.823169   -3.661602
  35 H     1.0000    0     1.008   -5.425511   -8.138974   -4.079520
  36 H     1.0000    0     1.008    4.519472   -2.643676   -0.901184
  37 H     1.0000    0     1.008    5.833654   -2.575567    3.641649
  38 H     1.0000    0     1.008    3.233994   -4.686862    6.896424
  39 H     1.0000    0     1.008   -0.708243   -6.956680    5.685720

--------------------------------
INTERNAL COORDINATES (ANGSTROEM)
--------------------------------
 C      0   0   0     0.000000000000     0.00000000     0.00000000
 C      1   0   0     1.400886987126     0.00000000     0.00000000
 Cl     2   1   0     1.729092442465   121.48667795     0.00000000
 C      2   1   3     1.393110088017   119.81552781   179.79726619
 H      4   2   1     1.084859858245   119.00272560   180.82003588
 C      4   2   1     1.391945385680   120.19682403     1.45265900
 C      6   4   2     1.393124055392   120.21982669   359.83367312
 C      1   2   3     1.386876344985   119.54353605   179.70519831
 S      1   2   3     1.804331640576   120.90691107     2.96543365
 O      9   1   2     1.449919491846   107.69012530   291.93166407
 O      9   1   2     1.450962222173   106.23734540    65.12575303
 N      9   1   2     1.646845838756   106.95787113   178.07771097
 H     12   9   1     1.014650528463   116.29197536    72.38762240
 H     12   9   1     1.017751041184   117.00735424   290.83143860
 H      8   1   2     1.081412166179   118.89814402   178.14126607
 H      6   4   2     1.085908525291   120.63863680   179.44140216
 C      7   6   4     1.498911102448   117.92673220   178.16153737
 N     17   7   6     1.386658395819   117.38692896   208.15345368
 O     17   7   6     1.216071446948   122.38906766    29.06962324
 N     18  17   7     1.373046568174   121.83159159    23.00166774
 C     20  18  17     1.476396867103   120.18157298    93.94549902
 C     21  20  18     1.544114397746   101.58082136   173.50049148
 C     22  21  20     1.514370258709   103.21645909   334.32366277
 C     20  18  17     1.398212047420   119.93602888   235.01303578
 C     21  20  18     1.517444926745   111.87549427   296.63825354
 C     24  20  18     1.389496135259   128.45049725    19.26028459
 C     26  24  20     1.401540048347   117.40464326   174.40602754
 C     27  26  24     1.393653150417   121.17256249   359.86879614
 C     23  22  21     1.384712353512   131.88066563   191.97763187
 H     18  17   7     1.021004061024   114.17805604   175.48458058
 H     21  20  18     1.104930882251   108.53372016    58.23321018
 H     22  21  20     1.092856829004   112.22204741   211.53043772
 H     22  21  20     1.099100539688   109.51879674    91.61588185
 H     25  21  20     1.095511922534   111.31832582    61.83819914
 H     25  21  20     1.095255741970   110.26273146   301.24964539
 H     25  21  20     1.094389372895   110.10312685   181.25530013
 H     26  24  20     1.086573201386   120.88717822   354.02753553
 H     27  26  24     1.086207008505   119.20885506   179.59978831
 H     28  27  26     1.085053209115   119.89444735   180.21609157
 H     29  23  22     1.086910060481   120.51401056     3.09189417

---------------------------
INTERNAL COORDINATES (A.U.)
---------------------------
 C      0   0   0     0.000000000000     0.00000000     0.00000000
 C      1   0   0     2.647292750243     0.00000000     0.00000000
 Cl     2   1   0     3.267511176492   121.48667795     0.00000000
 C      2   1   3     2.632596540755   119.81552781   179.79726619
 H      4   2   1     2.050088025768   119.00272560   180.82003588
 C      4   2   1     2.630395572310   120.19682403     1.45265900
 C      6   4   2     2.632622935269   120.21982669   359.83367312
 C      1   2   3     2.620816473635   119.54353605   179.70519831
 S      1   2   3     3.409692655457   120.90691107     2.96543365
 O      9   1   2     2.739950755824   107.69012530   291.93166407
 O      9   1   2     2.741921230573   106.23734540    65.12575303
 N      9   1   2     3.112087620037   106.95787113   178.07771097
 H     12   9   1     1.917411620433   116.29197536    72.38762240
 H     12   9   1     1.923270740351   117.00735424   290.83143860
 H      8   1   2     2.043572831970   118.89814402   178.14126607
 H      6   4   2     2.052069719290   120.63863680   179.44140216
 C      7   6   4     2.832531482721   117.92673220   178.16153737
 N     17   7   6     2.620404609400   117.38692896   208.15345368
 O     17   7   6     2.298041994013   122.38906766    29.06962324
 N     18  17   7     2.594681982970   121.83159159    23.00166774
 C     20  18  17     2.789985743803   120.18157298    93.94549902
 C     21  20  18     2.917953331185   101.58082136   173.50049148
 C     22  21  20     2.861745054316   103.21645909   334.32366277
 C     20  18  17     2.642237846773   119.93602888   235.01303578
 C     21  20  18     2.867555334856   111.87549427   296.63825354
 C     24  20  18     2.625767159782   128.45049725    19.26028459
 C     26  24  20     2.648526857099   117.40464326   174.40602754
 C     27  26  24     2.633622779965   121.17256249   359.86879614
 C     23  22  21     2.616727122396   131.88066563   191.97763187
 H     18  17   7     1.929418056957   114.17805604   175.48458058
 H     21  20  18     2.088016764367   108.53372016    58.23321018
 H     22  21  20     2.065200110404   112.22204741   211.53043772
 H     22  21  20     2.076999013655   109.51879674    91.61588185
 H     25  21  20     2.070217510035   111.31832582    61.83819914
 H     25  21  20     2.069733398929   110.26273146   301.24964539
 H     25  21  20     2.068096198646   110.10312685   181.25530013
 H     26  24  20     2.053325775078   120.88717822   354.02753553
 H     27  26  24     2.052633770821   119.20885506   179.59978831
 H     28  27  26     2.050453405959   119.89444735   180.21609157
 H     29  23  22     2.053962346513   120.51401056     3.09189417

---------------------
BASIS SET INFORMATION
---------------------
There are 6 groups of distinct atoms

 Group   1 Type C   : 19s6p3d2f contracted to 5s4p3d2f pattern {88111/3111/111/11}
 Group   2 Type Cl  : 42s17p3d2f contracted to 6s5p3d2f pattern {131313111/77111/111/11}
 Group   3 Type H   : 6s3p2d contracted to 4s3p2d pattern {3111/111/11}
 Group   4 Type S   : 42s17p3d2f contracted to 6s5p3d2f pattern {131313111/77111/111/11}
 Group   5 Type O   : 19s6p3d2f contracted to 5s4p3d2f pattern {88111/3111/111/11}
 Group   6 Type N   : 19s6p3d2f contracted to 5s4p3d2f pattern {88111/3111/111/11}

Atom   0C    basis set group =>   1
Atom   1C    basis set group =>   1
Atom   2Cl   basis set group =>   2
Atom   3C    basis set group =>   1
Atom   4H    basis set group =>   3
Atom   5C    basis set group =>   1
Atom   6C    basis set group =>   1
Atom   7C    basis set group =>   1
Atom   8S    basis set group =>   4
Atom   9O    basis set group =>   5
Atom  10O    basis set group =>   5
Atom  11N    basis set group =>   6
Atom  12H    basis set group =>   3
Atom  13H    basis set group =>   3
Atom  14H    basis set group =>   3
Atom  15H    basis set group =>   3
Atom  16C    basis set group =>   1
Atom  17N    basis set group =>   6
Atom  18O    basis set group =>   5
Atom  19N    basis set group =>   6
Atom  20C    basis set group =>   1
Atom  21C    basis set group =>   1
Atom  22C    basis set group =>   1
Atom  23C    basis set group =>   1
Atom  24C    basis set group =>   1
Atom  25C    basis set group =>   1
Atom  26C    basis set group =>   1
Atom  27C    basis set group =>   1
Atom  28C    basis set group =>   1
Atom  29H    basis set group =>   3
Atom  30H    basis set group =>   3
Atom  31H    basis set group =>   3
Atom  32H    basis set group =>   3
Atom  33H    basis set group =>   3
Atom  34H    basis set group =>   3
Atom  35H    basis set group =>   3
Atom  36H    basis set group =>   3
Atom  37H    basis set group =>   3
Atom  38H    basis set group =>   3
Atom  39H    basis set group =>   3
---------------------------------
AUXILIARY/J BASIS SET INFORMATION
---------------------------------
There are 6 groups of distinct atoms

 Group   1 Type C   : 12s5p4d2f1g contracted to 6s4p3d1f1g pattern {711111/2111/211/2/1}
 Group   2 Type Cl  : 14s5p5d2f1g contracted to 8s4p3d1f1g pattern {71111111/2111/311/2/1}
 Group   3 Type H   : 5s2p1d contracted to 3s1p1d pattern {311/2/1}
 Group   4 Type S   : 14s5p5d2f1g contracted to 8s4p3d1f1g pattern {71111111/2111/311/2/1}
 Group   5 Type O   : 12s5p4d2f1g contracted to 6s4p3d1f1g pattern {711111/2111/211/2/1}
 Group   6 Type N   : 12s5p4d2f1g contracted to 6s4p3d1f1g pattern {711111/2111/211/2/1}

Atom   0C    basis set group =>   1
Atom   1C    basis set group =>   1
Atom   2Cl   basis set group =>   2
Atom   3C    basis set group =>   1
Atom   4H    basis set group =>   3
Atom   5C    basis set group =>   1
Atom   6C    basis set group =>   1
Atom   7C    basis set group =>   1
Atom   8S    basis set group =>   4
Atom   9O    basis set group =>   5
Atom  10O    basis set group =>   5
Atom  11N    basis set group =>   6
Atom  12H    basis set group =>   3
Atom  13H    basis set group =>   3
Atom  14H    basis set group =>   3
Atom  15H    basis set group =>   3
Atom  16C    basis set group =>   1
Atom  17N    basis set group =>   6
Atom  18O    basis set group =>   5
Atom  19N    basis set group =>   6
Atom  20C    basis set group =>   1
Atom  21C    basis set group =>   1
Atom  22C    basis set group =>   1
Atom  23C    basis set group =>   1
Atom  24C    basis set group =>   1
Atom  25C    basis set group =>   1
Atom  26C    basis set group =>   1
Atom  27C    basis set group =>   1
Atom  28C    basis set group =>   1
Atom  29H    basis set group =>   3
Atom  30H    basis set group =>   3
Atom  31H    basis set group =>   3
Atom  32H    basis set group =>   3
Atom  33H    basis set group =>   3
Atom  34H    basis set group =>   3
Atom  35H    basis set group =>   3
Atom  36H    basis set group =>   3
Atom  37H    basis set group =>   3
Atom  38H    basis set group =>   3
Atom  39H    basis set group =>   3
---------------------------------
AUXILIARY/C BASIS SET INFORMATION
---------------------------------
There are 6 groups of distinct atoms

 Group   1 Type C   : 9s7p6d4f2g contracted to 9s7p6d4f2g pattern {111111111/1111111/111111/1111/11}
 Group   2 Type Cl  : 11s9p8d6f3g contracted to 11s9p8d6f3g pattern {11111111111/111111111/11111111/111111/111}
 Group   3 Type H   : 5s4p3d2f contracted to 5s4p3d2f pattern {11111/1111/111/11}
 Group   4 Type S   : 11s9p8d6f3g contracted to 11s9p8d6f3g pattern {11111111111/111111111/11111111/111111/111}
 Group   5 Type O   : 9s7p6d4f2g contracted to 9s7p6d4f2g pattern {111111111/1111111/111111/1111/11}
 Group   6 Type N   : 9s7p6d4f2g contracted to 9s7p6d4f2g pattern {111111111/1111111/111111/1111/11}

Atom   0C    basis set group =>   1
Atom   1C    basis set group =>   1
Atom   2Cl   basis set group =>   2
Atom   3C    basis set group =>   1
Atom   4H    basis set group =>   3
Atom   5C    basis set group =>   1
Atom   6C    basis set group =>   1
Atom   7C    basis set group =>   1
Atom   8S    basis set group =>   4
Atom   9O    basis set group =>   5
Atom  10O    basis set group =>   5
Atom  11N    basis set group =>   6
Atom  12H    basis set group =>   3
Atom  13H    basis set group =>   3
Atom  14H    basis set group =>   3
Atom  15H    basis set group =>   3
Atom  16C    basis set group =>   1
Atom  17N    basis set group =>   6
Atom  18O    basis set group =>   5
Atom  19N    basis set group =>   6
Atom  20C    basis set group =>   1
Atom  21C    basis set group =>   1
Atom  22C    basis set group =>   1
Atom  23C    basis set group =>   1
Atom  24C    basis set group =>   1
Atom  25C    basis set group =>   1
Atom  26C    basis set group =>   1
Atom  27C    basis set group =>   1
Atom  28C    basis set group =>   1
Atom  29H    basis set group =>   3
Atom  30H    basis set group =>   3
Atom  31H    basis set group =>   3
Atom  32H    basis set group =>   3
Atom  33H    basis set group =>   3
Atom  34H    basis set group =>   3
Atom  35H    basis set group =>   3
Atom  36H    basis set group =>   3
Atom  37H    basis set group =>   3
Atom  38H    basis set group =>   3
Atom  39H    basis set group =>   3


           ************************************************************
           *        Program running with 8 parallel MPI-processes     *
           *              working on a common directory               *
           ************************************************************
------------------------------------------------------------------------------
                           ORCA GTO INTEGRAL CALCULATION
                           -- RI-GTO INTEGRALS CHOSEN --
------------------------------------------------------------------------------
------------------------------------------------------------------------------
                   ___                                                        
                  /   \      - P O W E R E D   B Y -                         
                 /     \                                                     
                 |  |  |   _    _      __       _____    __    __             
                 |  |  |  | |  | |    /  \     |  _  \  |  |  /  |          
                  \  \/   | |  | |   /    \    | | | |  |  | /  /          
                 / \  \   | |__| |  /  /\  \   | |_| |  |  |/  /          
                |  |  |   |  __  | /  /__\  \  |    /   |      \           
                |  |  |   | |  | | |   __   |  |    \   |  |\   \          
                \     /   | |  | | |  |  |  |  | |\  \  |  | \   \       
                 \___/    |_|  |_| |__|  |__|  |_| \__\ |__|  \__/        
                                                                              
                      - O R C A' S   B I G   F R I E N D -                    
                                      &                                       
                       - I N T E G R A L  F E E D E R -                       
                                                                              
 v1 FN, 2020, v2 2021                                                         
------------------------------------------------------------------------------


Reading SHARK input file HA.37.avtz.SHARKINP.tmp ... ok
----------------------
SHARK INTEGRAL PACKAGE
----------------------

Number of atoms                             ...     40
Number of basis functions                   ...   1662
Number of shells                            ...    646
Maximum angular momentum                    ...      3
Integral batch strategy                     ... SHARK/LIBINT Hybrid
RI-J (if used) integral strategy            ... SPLIT-RIJ (Revised 2003 algorithm where possible)
Printlevel                                  ...      1
Contraction scheme used                     ... PARTIAL GENERAL contraction
Coulomb Range Separation                    ... NOT USED
Exchange Range Separation                   ... NOT USED
Finite Nucleus Model                        ... NOT USED
Auxiliary Coulomb fitting basis             ... AVAILABLE
   # of basis functions in Aux-J            ...   1356
   # of shells in Aux-J                     ...    444
   Maximum angular momentum in Aux-J        ...      4
Auxiliary J/K fitting basis                 ... NOT available
Auxiliary Correlation fitting basis         ... AVAILABLE
   # of basis functions in Aux-C            ...   3362
   # of shells in Aux-C                     ...    914
   Maximum angular momentum in Aux-C        ...      4
Auxiliary 'external' fitting basis          ... NOT available
Integral threshold                          ...     2.500000e-11
Primitive cut-off                           ...     2.500000e-12
Primitive pair pre-selection threshold      ...     2.500000e-12

Calculating pre-screening integrals         ... done (  0.1 sec) Dimension = 646
Calculating pre-screening integrals (ORCA)  ... done (  0.4 sec) Dimension = 484
Organizing shell pair data                  ... done (  1.5 sec)
Shell pair information
Total number of shell pairs                 ...    208981
Shell pairs after pre-screening             ...    143759
Total number of primitive shell pairs       ...    261117
Primitive shell pairs kept                  ...    164918
          la=0 lb=0:  31022 shell pairs
          la=1 lb=0:  37383 shell pairs
          la=1 lb=1:  10119 shell pairs
          la=2 lb=0:  24650 shell pairs
          la=2 lb=1:  13495 shell pairs
          la=2 lb=2:   4624 shell pairs
          la=3 lb=0:  11060 shell pairs
          la=3 lb=1:   6195 shell pairs
          la=3 lb=2:   4206 shell pairs
          la=3 lb=3:   1005 shell pairs

Calculating one electron integrals          ... done (  0.3 sec)
Calculating RI/J V-Matrix + Cholesky decomp.... done (  0.1 sec)
Calculating RI/C V-Matrix + Cholesky decomp.... done (  0.7 sec)
Calculating Nuclear repulsion               ... done (  0.0 sec) ENN=   2510.984518251613 Eh

SHARK setup successfully completed in   4.7 seconds

Maximum memory used throughout the entire GTOINT-calculation: 186.7 MB


           ************************************************************
           *        Program running with 8 parallel MPI-processes     *
           *              working on a common directory               *
           ************************************************************
-------------------------------------------------------------------------------
                                 ORCA SCF
-------------------------------------------------------------------------------

------------
SCF SETTINGS
------------
Hamiltonian:
 Density Functional     Method          .... DFT(GTOs)
 Exchange Functional    Exchange        .... PBE
   PBE kappa parameter   XKappa         ....  0.804000
   PBE mue parameter    XMuePBE         ....  0.219520
 Correlation Functional Correlation     .... P86
 LDA part of GGA corr.  LDAOpt          .... VWN-5
 Gradients option       PostSCFGGA      .... off
 Hybrid DFT is turned on
   Fraction HF Exchange ScalHFX         ....  0.700000
   Scaling of DF-GGA-X  ScalDFX         ....  0.300000
   Scaling of DF-GGA-C  ScalDFC         ....  0.430000
   Scaling of DF-LDA-C  ScalLDAC        ....  0.430000
   Perturbative correction              ....  1.000000
   Density functional embedding theory  .... OFF
   NL short-range parameter             .... 14.200000
 RI-approximation to the Coulomb term is turned on
   Number of AuxJ basis functions       .... 1356
   RIJ-COSX (HFX calculated with COS-X)).... on


General Settings:
 Integral files         IntName         .... HA.37.avtz
 Hartree-Fock type      HFTyp           .... RHF
 Total Charge           Charge          ....    0
 Multiplicity           Mult            ....    1
 Number of Electrons    NEL             ....  190
 Basis Dimension        Dim             .... 1480
 Nuclear Repulsion      ENuc            ....   2510.9845182516 Eh

Convergence Acceleration:
 DIIS                   CNVDIIS         .... on
   Start iteration      DIISMaxIt       ....    12
   Startup error        DIISStart       ....  0.200000
   # of expansion vecs  DIISMaxEq       ....     5
   Bias factor          DIISBfac        ....   1.050
   Max. coefficient     DIISMaxC        ....  10.000
 Trust-Rad. Augm. Hess. CNVTRAH         .... auto
   Auto Start mean grad. ratio tolernc. ....  1.125000
   Auto Start start iteration           ....    20
   Auto Start num. interpolation iter.  ....    10
   Max. Number of Micro iterations      ....    16
   Max. Number of Macro iterations      .... Maxiter - #DIIS iter
   Number of Davidson start vectors     ....     2
   Converg. threshold I  (grad. norm)   ....   1.000e-05
   Converg. threshold II (energy diff.) ....   1.000e-08
   Grad. Scal. Fac. for Micro threshold ....   0.100
   Minimum threshold for Micro iter.    ....   0.010
   NR start threshold (gradient norm)   ....   0.001
   Initial trust radius                 ....   0.400
   Minimum AH scaling param. (alpha)    ....   1.000
   Maximum AH scaling param. (alpha)    .... 1000.000
   Orbital update algorithm             .... Taylor
   White noise on init. David. guess    .... on
   Maximum white noise                  ....   0.010
   Quad. conv. algorithm                .... NR
 SOSCF                  CNVSOSCF        .... on
   Start iteration      SOSCFMaxIt      ....   150
   Startup grad/error   SOSCFStart      ....  0.003300
 Level Shifting         CNVShift        .... on
   Level shift para.    LevelShift      ....    0.2500
   Turn off err/grad.   ShiftErr        ....    0.0010
 Zerner damping         CNVZerner       .... off
 Static damping         CNVDamp         .... on
   Fraction old density DampFac         ....    0.7000
   Max. Damping (<1)    DampMax         ....    0.9800
   Min. Damping (>=0)   DampMin         ....    0.0000
   Turn off err/grad.   DampErr         ....    0.1000
 Fernandez-Rico         CNVRico         .... off

SCF Procedure:
 Maximum # iterations   MaxIter         ....   125
 SCF integral mode      SCFMode         .... Direct
   Integral package                     .... SHARK and LIBINT hybrid scheme
 Reset frequency        DirectResetFreq ....    20
 Integral Threshold     Thresh          ....  2.500e-11 Eh
 Primitive CutOff       TCut            ....  2.500e-12 Eh

Convergence Tolerance:
 Convergence Check Mode ConvCheckMode   .... Total+1el-Energy
 Convergence forced     ConvForced      .... 0
 Energy Change          TolE            ....  1.000e-08 Eh
 1-El. energy change                    ....  1.000e-05 Eh
 Orbital Gradient       TolG            ....  1.000e-05
 Orbital Rotation angle TolX            ....  1.000e-05
 DIIS Error             TolErr          ....  5.000e-07


Diagonalization of the overlap matrix:
Smallest eigenvalue                        ... 2.344e-07
Time for diagonalization                   ...    0.344 sec
Threshold for overlap eigenvalues          ... 1.000e-08
Number of eigenvalues below threshold      ... 0
Time for construction of square roots      ...    0.250 sec
Total time needed                          ...    0.603 sec

Time for model grid setup =    0.529 sec

------------------------------
INITIAL GUESS: MODEL POTENTIAL
------------------------------
Loading Hartree-Fock densities                     ... done
Calculating cut-offs                               ... done
Initializing the effective Hamiltonian             ... done
Setting up the integral package (SHARK)            ... done
Starting the Coulomb interaction                   ... done (   2.4 sec)
Reading the grid                                   ... done
Mapping shells                                     ... done
Starting the XC term evaluation                    ... done (   2.0 sec)
  promolecular density results
     # of electrons  =    189.984075750
     EX              =   -183.118073613
     EC              =     -0.077847713
     EX+EC           =   -183.195921326
Transforming the Hamiltonian                       ... done (   0.1 sec)
Diagonalizing the Hamiltonian                      ... done (   0.3 sec)
Back transforming the eigenvectors                 ... done (   0.1 sec)
Now organizing SCF variables                       ... done
                      ------------------
                      INITIAL GUESS DONE (   5.5 sec)
                      ------------------
-------------------
DFT GRID GENERATION
-------------------

General Integration Accuracy     IntAcc      ... 4.388
Radial Grid Type                 RadialGrid  ... OptM3 with GC (2021)
Angular Grid (max. ang.)         AngularGrid ... 4 (Lebedev-302)
Angular grid pruning method      GridPruning ... 4 (adaptive)
Weight generation scheme         WeightScheme... Becke
Basis function cutoff            BFCut       ... 1.0000e-11
Integration weight cutoff        WCut        ... 1.0000e-14
Angular grids for H and He will be reduced by one unit
Partially contracted basis set               ... off
Rotationally invariant grid construction     ... off

Total number of grid points                  ...   204285
Total number of batches                      ...     3211
Average number of points per batch           ...       63
Average number of grid points per atom       ...     5107
Time for grid setup =    2.050 sec

--------------------
COSX GRID GENERATION
--------------------

GRIDX 1
-------
General Integration Accuracy     IntAcc      ... 3.816
Radial Grid Type                 RadialGrid  ... OptM3 with GC (2021)
Angular Grid (max. ang.)         AngularGrid ... 1 (Lebedev-50)
Angular grid pruning method      GridPruning ... 4 (adaptive)
Weight generation scheme         WeightScheme... Becke
Basis function cutoff            BFCut       ... 1.0000e-11
Integration weight cutoff        WCut        ... 1.0000e-14
Angular grids for H and He will be reduced by one unit
Partially contracted basis set               ... on
Rotationally invariant grid construction     ... off

Total number of grid points                  ...    25406
Total number of batches                      ...      416
Average number of points per batch           ...       61
Average number of grid points per atom       ...      635
UseSFitting                                  ... on

GRIDX 2
-------
General Integration Accuracy     IntAcc      ... 4.020
Radial Grid Type                 RadialGrid  ... OptM3 with GC (2021)
Angular Grid (max. ang.)         AngularGrid ... 2 (Lebedev-110)
Angular grid pruning method      GridPruning ... 4 (adaptive)
Weight generation scheme         WeightScheme... Becke
Basis function cutoff            BFCut       ... 1.0000e-11
Integration weight cutoff        WCut        ... 1.0000e-14
Angular grids for H and He will be reduced by one unit
Partially contracted basis set               ... on
Rotationally invariant grid construction     ... off

Total number of grid points                  ...    60499
Total number of batches                      ...      964
Average number of points per batch           ...       62
Average number of grid points per atom       ...     1512
UseSFitting                                  ... on

GRIDX 3
-------
General Integration Accuracy     IntAcc      ... 4.338
Radial Grid Type                 RadialGrid  ... OptM3 with GC (2021)
Angular Grid (max. ang.)         AngularGrid ... 3 (Lebedev-194)
Angular grid pruning method      GridPruning ... 4 (adaptive)
Weight generation scheme         WeightScheme... Becke
Basis function cutoff            BFCut       ... 1.0000e-11
Integration weight cutoff        WCut        ... 1.0000e-14
Angular grids for H and He will be reduced by one unit
Partially contracted basis set               ... on
Rotationally invariant grid construction     ... off

Total number of grid points                  ...   134095
Total number of batches                      ...     2118
Average number of points per batch           ...       63
Average number of grid points per atom       ...     3352
UseSFitting                                  ... on

Time for X-Grid setup             =    5.838 sec

 re-compute Schwartz prescreening matrix in partically contracted basis (1) ...done (   0.159 sec)
--------------
SCF ITERATIONS
--------------
ITER       Energy         Delta-E        Max-DP      RMS-DP      [F,P]     Damp
               ***  Starting incremental Fock matrix formation  ***
  0  -1862.6883518086   0.000000000000 2.79623693  0.00706663  0.2934619 0.7000
  1  -1862.9708589630  -0.282507154390 2.60707736  0.00644165  0.1484013 0.7000
                               ***Turning on DIIS***
  2  -1863.1145112367  -0.143652273694 6.85662497  0.01683912  0.0680896 0.0000
  3  -1863.3665982345  -0.252086997804 1.15686244  0.00313104  0.0652445 0.0000
  4  -1863.3975449035  -0.030946669023 0.44009123  0.00122676  0.0103856 0.0000
  5  -1863.3987766681  -0.001231764632 0.25330382  0.00073884  0.0070545 0.0000
                      *** Initiating the SOSCF procedure ***
                           *** Shutting down DIIS ***
                      *** Re-Reading the Fockian *** 
                      *** Removing any level shift *** 
ITER      Energy       Delta-E        Grad      Rot      Max-DP    RMS-DP
  6  -1863.39912641  -0.0003497371  0.000724  0.000724  0.282506  0.000838
               *** Restarting incremental Fock matrix formation ***
  7  -1863.39922331  -0.0000969056  0.000339  0.001015  1.783118  0.006066
  8  -1863.39924965  -0.0000263408  0.000212  0.000758  0.210525  0.001249
  9  -1863.39925163  -0.0000019755  0.000105  0.000193  0.191152  0.000848
 10  -1863.39925385  -0.0000022267  0.000022  0.000049  0.138451  0.000517
 11  -1863.39925417  -0.0000003126  0.000015  0.000025  0.109503  0.000388
 12  -1863.39925403   0.0000001351  0.000003  0.000020  0.112121  0.000389
 13  -1863.39925401   0.0000000243  0.000003  0.000003  0.065314  0.000259
                  ***Gradient check signals convergence***
              ***Rediagonalizing the Fockian in SOSCF/NRSCF***

               *****************************************************
               *                     SUCCESS                       *
               *           SCF CONVERGED AFTER  14 CYCLES          *
               *****************************************************

Old exchange energy                            =   -130.244601315 Eh
New exchange energy                            =   -130.244551304 Eh
Exchange energy change after final integration =      0.000050011 Eh
Total energy after final integration           =  -1863.399204067 Eh
Final COS-X integration done in                =   135.551 sec

----------------
TOTAL SCF ENERGY
----------------

Total Energy       :        -1863.39920407 Eh          -50705.67017 eV

Components:
Nuclear Repulsion  :         2510.98451825 Eh           68327.36244 eV
Electronic Energy  :        -4374.38372232 Eh         -119033.03261 eV
One Electron Energy:        -7549.55245841 Eh         -205433.76644 eV
Two Electron Energy:         3175.16873610 Eh           86400.73384 eV
Max COSX asymmetry :            0.00004966 Eh               0.00135 eV

Virial components:
Potential Energy   :        -3721.95141494 Eh         -101279.44695 eV
Kinetic Energy     :         1858.55221088 Eh           50573.77678 eV
Virial Ratio       :            2.00260794


DFT components:
N(Alpha)           :       94.999860669478 electrons
N(Beta)            :       94.999860669478 electrons
N(Total)           :      189.999721338955 electrons
E(X)               :      -55.590731851737 Eh       
E(C)               :       -3.163399522259 Eh       
E(XC)              :      -58.754131373996 Eh       
DFET-embed. en.    :        0.000000000000 Eh       

---------------
SCF CONVERGENCE
---------------

  Last Energy change         ...   -7.0849e-08  Tolerance :   1.0000e-08
  Last MAX-Density change    ...    7.1054e-15  Tolerance :   1.0000e-07
  Last RMS-Density change    ...    3.6554e-17  Tolerance :   5.0000e-09
  Last Orbital Gradient      ...    1.5703e-06  Tolerance :   1.0000e-05
  Last Orbital Rotation      ...    5.9946e-06  Tolerance :   1.0000e-05

             **** THE GBW FILE WAS UPDATED (HA.37.avtz.gbw) ****
             **** DENSITY HA.37.avtz.scfp WAS UPDATED ****
             **** ENERGY FILE WAS UPDATED (HA.37.avtz.en.tmp) ****
             **** THE GBW FILE WAS UPDATED (HA.37.avtz.gbw) ****
             **** DENSITY HA.37.avtz.scfp WAS UPDATED ****
----------------
ORBITAL ENERGIES
----------------

  NO   OCC          E(Eh)            E(eV) 
   0   2.0000    -103.624725     -2819.7721 
   1   2.0000     -91.045718     -2477.4799 
   2   2.0000     -20.016024      -544.6637 
   3   2.0000     -20.014909      -544.6334 
   4   2.0000     -20.014849      -544.6317 
   5   2.0000     -15.173468      -412.8911 
   6   2.0000     -15.166413      -412.6991 
   7   2.0000     -15.137600      -411.9150 
   8   2.0000     -10.975698      -298.6639 
   9   2.0000     -10.938460      -297.6506 
  10   2.0000     -10.900198      -296.6095 
  11   2.0000     -10.898250      -296.5564 
  12   2.0000     -10.897710      -296.5418 
  13   2.0000     -10.883811      -296.1636 
  14   2.0000     -10.878780      -296.0267 
  15   2.0000     -10.877290      -295.9861 
  16   2.0000     -10.872348      -295.8516 
  17   2.0000     -10.864738      -295.6445 
  18   2.0000     -10.863741      -295.6174 
  19   2.0000     -10.863342      -295.6066 
  20   2.0000     -10.863213      -295.6031 
  21   2.0000     -10.859411      -295.4996 
  22   2.0000     -10.853557      -295.3403 
  23   2.0000     -10.843195      -295.0583 
  24   2.0000     -10.172495      -276.8077 
  25   2.0000      -8.787720      -239.1260 
  26   2.0000      -7.745751      -210.7726 
  27   2.0000      -7.741067      -210.6451 
  28   2.0000      -7.740780      -210.6373 
  29   2.0000      -6.574224      -178.8937 
  30   2.0000      -6.572572      -178.8488 
  31   2.0000      -6.570855      -178.8021 
  32   2.0000      -1.339223       -36.4421 
  33   2.0000      -1.297748       -35.3135 
  34   2.0000      -1.246376       -33.9156 
  35   2.0000      -1.222630       -33.2694 
  36   2.0000      -1.116697       -30.3869 
  37   2.0000      -1.111302       -30.2401 
  38   2.0000      -1.105852       -30.0918 
  39   2.0000      -1.049743       -28.5650 
  40   2.0000      -1.043939       -28.4070 
  41   2.0000      -0.982078       -26.7237 
  42   2.0000      -0.973509       -26.4905 
  43   2.0000      -0.952529       -25.9196 
  44   2.0000      -0.945209       -25.7205 
  45   2.0000      -0.917533       -24.9673 
  46   2.0000      -0.866976       -23.5916 
  47   2.0000      -0.832378       -22.6502 
  48   2.0000      -0.812438       -22.1076 
  49   2.0000      -0.785474       -21.3738 
  50   2.0000      -0.776257       -21.1230 
  51   2.0000      -0.766103       -20.8467 
  52   2.0000      -0.751736       -20.4558 
  53   2.0000      -0.732642       -19.9362 
  54   2.0000      -0.689973       -18.7751 
  55   2.0000      -0.678142       -18.4532 
  56   2.0000      -0.664516       -18.0824 
  57   2.0000      -0.653774       -17.7901 
  58   2.0000      -0.643783       -17.5182 
  59   2.0000      -0.629405       -17.1270 
  60   2.0000      -0.619368       -16.8539 
  61   2.0000      -0.609103       -16.5745 
  62   2.0000      -0.605238       -16.4694 
  63   2.0000      -0.591528       -16.0963 
  64   2.0000      -0.586282       -15.9535 
  65   2.0000      -0.580976       -15.8091 
  66   2.0000      -0.569554       -15.4984 
  67   2.0000      -0.567345       -15.4382 
  68   2.0000      -0.558607       -15.2005 
  69   2.0000      -0.543541       -14.7905 
  70   2.0000      -0.538984       -14.6665 
  71   2.0000      -0.529275       -14.4023 
  72   2.0000      -0.517918       -14.0933 
  73   2.0000      -0.511633       -13.9222 
  74   2.0000      -0.509366       -13.8606 
  75   2.0000      -0.503071       -13.6892 
  76   2.0000      -0.490241       -13.3401 
  77   2.0000      -0.483773       -13.1641 
  78   2.0000      -0.482543       -13.1307 
  79   2.0000      -0.463740       -12.6190 
  80   2.0000      -0.456259       -12.4154 
  81   2.0000      -0.452584       -12.3154 
  82   2.0000      -0.444466       -12.0945 
  83   2.0000      -0.440210       -11.9787 
  84   2.0000      -0.428247       -11.6532 
  85   2.0000      -0.419671       -11.4198 
  86   2.0000      -0.419026       -11.4023 
  87   2.0000      -0.415289       -11.3006 
  88   2.0000      -0.400691       -10.9034 
  89   2.0000      -0.394842       -10.7442 
  90   2.0000      -0.379486       -10.3263 
  91   2.0000      -0.350503        -9.5377 
  92   2.0000      -0.337733        -9.1902 
  93   2.0000      -0.331109        -9.0099 
  94   2.0000      -0.291252        -7.9254 
  95   0.0000       0.001258         0.0342 
  96   0.0000       0.006908         0.1880 
  97   0.0000       0.014343         0.3903 
  98   0.0000       0.017803         0.4844 
  99   0.0000       0.019908         0.5417 
 100   0.0000       0.025861         0.7037 
 101   0.0000       0.029065         0.7909 
 102   0.0000       0.031513         0.8575 
 103   0.0000       0.032176         0.8755 
 104   0.0000       0.037826         1.0293 
 105   0.0000       0.040020         1.0890 
 106   0.0000       0.042886         1.1670 
 107   0.0000       0.049339         1.3426 
 108   0.0000       0.051404         1.3988 
 109   0.0000       0.051965         1.4140 
 110   0.0000       0.053586         1.4582 
 111   0.0000       0.059120         1.6088 
 112   0.0000       0.063493         1.7277 
 113   0.0000       0.067354         1.8328 
 114   0.0000       0.067625         1.8402 
 115   0.0000       0.071801         1.9538 
 116   0.0000       0.077001         2.0953 
 117   0.0000       0.080262         2.1840 
 118   0.0000       0.081236         2.2105 
 119   0.0000       0.084690         2.3045 
 120   0.0000       0.087942         2.3930 
 121   0.0000       0.089307         2.4302 
 122   0.0000       0.094645         2.5754 
 123   0.0000       0.095593         2.6012 
 124   0.0000       0.098186         2.6718 
 125   0.0000       0.098511         2.6806 
 126   0.0000       0.100121         2.7244 
 127   0.0000       0.101518         2.7624 
 128   0.0000       0.103992         2.8298 
 129   0.0000       0.105982         2.8839 
 130   0.0000       0.108303         2.9471 
 131   0.0000       0.111988         3.0473 
 132   0.0000       0.115147         3.1333 
 133   0.0000       0.116730         3.1764 
 134   0.0000       0.119326         3.2470 
 135   0.0000       0.120253         3.2722 
 136   0.0000       0.122475         3.3327 
 137   0.0000       0.123476         3.3600 
 138   0.0000       0.125200         3.4069 
 139   0.0000       0.127224         3.4619 
 140   0.0000       0.130292         3.5454 
 141   0.0000       0.134056         3.6479 
 142   0.0000       0.136948         3.7265 
 143   0.0000       0.140257         3.8166 
 144   0.0000       0.142319         3.8727 
 145   0.0000       0.144814         3.9406 
 146   0.0000       0.145424         3.9572 
 147   0.0000       0.147090         4.0025 
 148   0.0000       0.149503         4.0682 
 149   0.0000       0.154192         4.1958 
 150   0.0000       0.156474         4.2579 
 151   0.0000       0.157683         4.2908 
 152   0.0000       0.160872         4.3776 
 153   0.0000       0.161464         4.3937 
 154   0.0000       0.162378         4.4185 
 155   0.0000       0.165998         4.5170 
 156   0.0000       0.167861         4.5677 
 157   0.0000       0.170308         4.6343 
 158   0.0000       0.171891         4.6774 
 159   0.0000       0.177608         4.8330 
 160   0.0000       0.178707         4.8629 
 161   0.0000       0.181208         4.9309 
 162   0.0000       0.184095         5.0095 
 163   0.0000       0.185377         5.0444 
 164   0.0000       0.188474         5.1286 
 165   0.0000       0.190859         5.1935 
 166   0.0000       0.195668         5.3244 
 167   0.0000       0.197122         5.3640 
 168   0.0000       0.199277         5.4226 
 169   0.0000       0.204395         5.5619 
 170   0.0000       0.205545         5.5932 
 171   0.0000       0.207861         5.6562 
 172   0.0000       0.208484         5.6732 
 173   0.0000       0.210353         5.7240 
 174   0.0000       0.212994         5.7959 
 175   0.0000       0.213797         5.8177 
 176   0.0000       0.217784         5.9262 
 177   0.0000       0.219991         5.9862 
 178   0.0000       0.220520         6.0007 
 179   0.0000       0.224015         6.0958 
 180   0.0000       0.224536         6.1099 
 181   0.0000       0.226253         6.1567 
 182   0.0000       0.226952         6.1757 
 183   0.0000       0.231414         6.2971 
 184   0.0000       0.231827         6.3083 
 185   0.0000       0.233448         6.3524 
 186   0.0000       0.234945         6.3932 
 187   0.0000       0.236482         6.4350 
 188   0.0000       0.239689         6.5223 
 189   0.0000       0.240730         6.5506 
 190   0.0000       0.243079         6.6145 
 191   0.0000       0.244426         6.6512 
 192   0.0000       0.246034         6.6949 
 193   0.0000       0.249373         6.7858 
 194   0.0000       0.251972         6.8565 
 195   0.0000       0.253742         6.9047 
 196   0.0000       0.254777         6.9328 
 197   0.0000       0.257921         7.0184 
 198   0.0000       0.259536         7.0623 
 199   0.0000       0.262013         7.1297 
 200   0.0000       0.262928         7.1546 
 201   0.0000       0.265724         7.2307 
 202   0.0000       0.267387         7.2760 
 203   0.0000       0.272419         7.4129 
 204   0.0000       0.273254         7.4356 
 205   0.0000       0.274001         7.4559 
 206   0.0000       0.276157         7.5146 
 207   0.0000       0.279464         7.6046 
 208   0.0000       0.282947         7.6994 
 209   0.0000       0.285775         7.7763 
 210   0.0000       0.286842         7.8054 
 211   0.0000       0.289911         7.8889 
 212   0.0000       0.293250         7.9797 
 213   0.0000       0.294686         8.0188 
 214   0.0000       0.296333         8.0636 
 215   0.0000       0.298618         8.1258 
 216   0.0000       0.302534         8.2324 
 217   0.0000       0.306659         8.3446 
 218   0.0000       0.308082         8.3834 
 219   0.0000       0.311168         8.4673 
 220   0.0000       0.314049         8.5457 
 221   0.0000       0.314997         8.5715 
 222   0.0000       0.318396         8.6640 
 223   0.0000       0.322057         8.7636 
 224   0.0000       0.324755         8.8370 
 225   0.0000       0.327002         8.8982 
 226   0.0000       0.327158         8.9024 
 227   0.0000       0.328730         8.9452 
 228   0.0000       0.332248         9.0409 
 229   0.0000       0.333970         9.0878 
 230   0.0000       0.335904         9.1404 
 231   0.0000       0.336933         9.1684 
 232   0.0000       0.342095         9.3089 
 233   0.0000       0.345717         9.4074 
 234   0.0000       0.347641         9.4598 
 235   0.0000       0.349632         9.5140 
 236   0.0000       0.352482         9.5915 
 237   0.0000       0.356364         9.6971 
 238   0.0000       0.357075         9.7165 
 239   0.0000       0.360071         9.7980 
 240   0.0000       0.361277         9.8308 
 241   0.0000       0.363608         9.8943 
 242   0.0000       0.366498         9.9729 
 243   0.0000       0.367458         9.9990 
 244   0.0000       0.370076        10.0703 
 245   0.0000       0.374672        10.1954 
 246   0.0000       0.378273        10.2933 
 247   0.0000       0.378466        10.2986 
 248   0.0000       0.383639        10.4394 
 249   0.0000       0.385626        10.4934 
 250   0.0000       0.387133        10.5344 
 251   0.0000       0.389762        10.6060 
 252   0.0000       0.390804        10.6343 
 253   0.0000       0.395609        10.7651 
 254   0.0000       0.398974        10.8566 
 255   0.0000       0.399851        10.8805 
 256   0.0000       0.402028        10.9397 
 257   0.0000       0.404777        11.0145 
 258   0.0000       0.406657        11.0657 
 259   0.0000       0.409926        11.1547 
 260   0.0000       0.410747        11.1770 
 261   0.0000       0.417502        11.3608 
 262   0.0000       0.418569        11.3898 
 263   0.0000       0.421357        11.4657 
 264   0.0000       0.423580        11.5262 
 265   0.0000       0.425645        11.5824 
 266   0.0000       0.428463        11.6591 
 267   0.0000       0.429791        11.6952 
 268   0.0000       0.430408        11.7120 
 269   0.0000       0.433615        11.7993 
 270   0.0000       0.436137        11.8679 
 271   0.0000       0.438921        11.9437 
 272   0.0000       0.441002        12.0003 
 273   0.0000       0.443059        12.0562 
 274   0.0000       0.447147        12.1675 
 275   0.0000       0.450430        12.2568 
 276   0.0000       0.452975        12.3261 
 277   0.0000       0.454349        12.3635 
 278   0.0000       0.456730        12.4283 
 279   0.0000       0.461042        12.5456 
 280   0.0000       0.463612        12.6155 
 281   0.0000       0.464238        12.6326 
 282   0.0000       0.466182        12.6855 
 283   0.0000       0.470156        12.7936 
 284   0.0000       0.472917        12.8687 
 285   0.0000       0.474943        12.9239 
 286   0.0000       0.477074        12.9818 
 287   0.0000       0.477983        13.0066 
 288   0.0000       0.479142        13.0381 
 289   0.0000       0.479931        13.0596 
 290   0.0000       0.481748        13.1090 
 291   0.0000       0.484136        13.1740 
 292   0.0000       0.486421        13.2362 
 293   0.0000       0.488347        13.2886 
 294   0.0000       0.489164        13.3108 
 295   0.0000       0.491406        13.3718 
 296   0.0000       0.492617        13.4048 
 297   0.0000       0.495482        13.4828 
 298   0.0000       0.497481        13.5372 
 299   0.0000       0.499685        13.5971 
 300   0.0000       0.501203        13.6384 
 301   0.0000       0.504244        13.7212 
 302   0.0000       0.508639        13.8408 
 303   0.0000       0.509092        13.8531 
 304   0.0000       0.510401        13.8887 
 305   0.0000       0.513602        13.9758 
 306   0.0000       0.517326        14.0772 
 307   0.0000       0.521928        14.2024 
 308   0.0000       0.522871        14.2281 
 309   0.0000       0.525521        14.3001 
 310   0.0000       0.529102        14.3976 
 311   0.0000       0.530411        14.4332 
 312   0.0000       0.532858        14.4998 
 313   0.0000       0.533672        14.5219 
 314   0.0000       0.536557        14.6005 
 315   0.0000       0.541089        14.7238 
 316   0.0000       0.542443        14.7606 
 317   0.0000       0.547145        14.8886 
 318   0.0000       0.548294        14.9198 
 319   0.0000       0.553205        15.0535 
 320   0.0000       0.557602        15.1731 
 321   0.0000       0.561158        15.2699 
 322   0.0000       0.563162        15.3244 
 323   0.0000       0.566918        15.4266 
 324   0.0000       0.567924        15.4540 
 325   0.0000       0.571782        15.5590 
 326   0.0000       0.572634        15.5822 
 327   0.0000       0.576633        15.6910 
 328   0.0000       0.578698        15.7472 
 329   0.0000       0.582054        15.8385 
 330   0.0000       0.584863        15.9149 
 331   0.0000       0.586398        15.9567 
 332   0.0000       0.590561        16.0700 
 333   0.0000       0.593184        16.1414 
 334   0.0000       0.595098        16.1935 
 335   0.0000       0.597975        16.2717 
 336   0.0000       0.600650        16.3445 
 337   0.0000       0.603251        16.4153 
 338   0.0000       0.605135        16.4666 
 339   0.0000       0.609682        16.5903 
 340   0.0000       0.612521        16.6675 
 341   0.0000       0.615806        16.7569 
 342   0.0000       0.615926        16.7602 
 343   0.0000       0.617819        16.8117 
 344   0.0000       0.621502        16.9119 
 345   0.0000       0.628160        17.0931 
 346   0.0000       0.629233        17.1223 
 347   0.0000       0.632110        17.2006 
 348   0.0000       0.634469        17.2648 
 349   0.0000       0.638421        17.3723 
 350   0.0000       0.640529        17.4297 
 351   0.0000       0.646272        17.5860 
 352   0.0000       0.648296        17.6410 
 353   0.0000       0.651894        17.7389 
 354   0.0000       0.653493        17.7825 
 355   0.0000       0.657294        17.8859 
 356   0.0000       0.658358        17.9148 
 357   0.0000       0.662238        18.0204 
 358   0.0000       0.664516        18.0824 
 359   0.0000       0.670031        18.2325 
 360   0.0000       0.672327        18.2950 
 361   0.0000       0.675928        18.3929 
 362   0.0000       0.681160        18.5353 
 363   0.0000       0.682065        18.5599 
 364   0.0000       0.682691        18.5770 
 365   0.0000       0.687893        18.7185 
 366   0.0000       0.690927        18.8011 
 367   0.0000       0.695025        18.9126 
 368   0.0000       0.695533        18.9264 
 369   0.0000       0.700196        19.0533 
 370   0.0000       0.702420        19.1138 
 371   0.0000       0.704378        19.1671 
 372   0.0000       0.711926        19.3725 
 373   0.0000       0.713915        19.4266 
 374   0.0000       0.717207        19.5162 
 375   0.0000       0.719909        19.5897 
 376   0.0000       0.721637        19.6367 
 377   0.0000       0.725127        19.7317 
 378   0.0000       0.727464        19.7953 
 379   0.0000       0.729034        19.8380 
 380   0.0000       0.736233        20.0339 
 381   0.0000       0.736999        20.0548 
 382   0.0000       0.744298        20.2534 
 383   0.0000       0.745726        20.2922 
 384   0.0000       0.747026        20.3276 
 385   0.0000       0.749395        20.3921 
 386   0.0000       0.752474        20.4759 
 387   0.0000       0.754404        20.5284 
 388   0.0000       0.761033        20.7088 
 389   0.0000       0.762384        20.7455 
 390   0.0000       0.768972        20.9248 
 391   0.0000       0.772053        21.0086 
 392   0.0000       0.774253        21.0685 
 393   0.0000       0.778318        21.1791 
 394   0.0000       0.781343        21.2614 
 395   0.0000       0.783238        21.3130 
 396   0.0000       0.784318        21.3424 
 397   0.0000       0.786736        21.4082 
 398   0.0000       0.790002        21.4970 
 399   0.0000       0.790320        21.5057 
 400   0.0000       0.795616        21.6498 
 401   0.0000       0.797248        21.6942 
 402   0.0000       0.800256        21.7761 
 403   0.0000       0.804540        21.8926 
 404   0.0000       0.808635        22.0041 
 405   0.0000       0.810761        22.0619 
 406   0.0000       0.812909        22.1204 
 407   0.0000       0.816315        22.2131 
 408   0.0000       0.819136        22.2898 
 409   0.0000       0.822476        22.3807 
 410   0.0000       0.823768        22.4159 
 411   0.0000       0.827305        22.5121 
 412   0.0000       0.827661        22.5218 
 413   0.0000       0.832338        22.6491 
 414   0.0000       0.833916        22.6920 
 415   0.0000       0.838091        22.8056 
 416   0.0000       0.839156        22.8346 
 417   0.0000       0.844800        22.9882 
 418   0.0000       0.846382        23.0312 
 419   0.0000       0.849060        23.1041 
 420   0.0000       0.851325        23.1657 
 421   0.0000       0.854050        23.2399 
 422   0.0000       0.855750        23.2861 
 423   0.0000       0.857666        23.3383 
 424   0.0000       0.861722        23.4487 
 425   0.0000       0.865135        23.5415 
 426   0.0000       0.870034        23.6748 
 427   0.0000       0.870848        23.6970 
 428   0.0000       0.876603        23.8536 
 429   0.0000       0.878876        23.9154 
 430   0.0000       0.880602        23.9624 
 431   0.0000       0.883016        24.0281 
 432   0.0000       0.885696        24.1010 
 433   0.0000       0.890996        24.2452 
 434   0.0000       0.891703        24.2645 
 435   0.0000       0.893893        24.3241 
 436   0.0000       0.897012        24.4089 
 437   0.0000       0.898997        24.4630 
 438   0.0000       0.904763        24.6199 
 439   0.0000       0.907166        24.6852 
 440   0.0000       0.909350        24.7447 
 441   0.0000       0.911925        24.8147 
 442   0.0000       0.913117        24.8472 
 443   0.0000       0.919254        25.0142 
 444   0.0000       0.919843        25.0302 
 445   0.0000       0.921865        25.0852 
 446   0.0000       0.924016        25.1437 
 447   0.0000       0.926281        25.2054 
 448   0.0000       0.930960        25.3327 
 449   0.0000       0.936255        25.4768 
 450   0.0000       0.940654        25.5965 
 451   0.0000       0.942626        25.6502 
 452   0.0000       0.946452        25.7543 
 453   0.0000       0.949188        25.8287 
 454   0.0000       0.952957        25.9313 
 455   0.0000       0.953652        25.9502 
 456   0.0000       0.955243        25.9935 
 457   0.0000       0.957223        26.0474 
 458   0.0000       0.958465        26.0811 
 459   0.0000       0.966259        26.2933 
 460   0.0000       0.967536        26.3280 
 461   0.0000       0.969884        26.3919 
 462   0.0000       0.976011        26.5586 
 463   0.0000       0.978827        26.6352 
 464   0.0000       0.982221        26.7276 
 465   0.0000       0.983505        26.7625 
 466   0.0000       0.984559        26.7912 
 467   0.0000       0.990687        26.9580 
 468   0.0000       0.994344        27.0575 
 469   0.0000       0.996247        27.1093 
 470   0.0000       0.998053        27.1584 
 471   0.0000       1.001352        27.2482 
 472   0.0000       1.005786        27.3688 
 473   0.0000       1.007874        27.4256 
 474   0.0000       1.012812        27.5600 
 475   0.0000       1.013462        27.5777 
 476   0.0000       1.016351        27.6563 
 477   0.0000       1.019186        27.7335 
 478   0.0000       1.022358        27.8198 
 479   0.0000       1.024118        27.8677 
 480   0.0000       1.026731        27.9388 
 481   0.0000       1.030074        28.0297 
 482   0.0000       1.034108        28.1395 
 483   0.0000       1.036867        28.2146 
 484   0.0000       1.039774        28.2937 
 485   0.0000       1.040642        28.3173 
 486   0.0000       1.044477        28.4217 
 487   0.0000       1.045104        28.4387 
 488   0.0000       1.048807        28.5395 
 489   0.0000       1.051330        28.6081 
 490   0.0000       1.054426        28.6924 
 491   0.0000       1.056291        28.7432 
 492   0.0000       1.059147        28.8209 
 493   0.0000       1.065563        28.9954 
 494   0.0000       1.066641        29.0248 
 495   0.0000       1.067109        29.0375 
 496   0.0000       1.072456        29.1830 
 497   0.0000       1.074697        29.2440 
 498   0.0000       1.075991        29.2792 
 499   0.0000       1.080687        29.4070 
 500   0.0000       1.083319        29.4786 
 501   0.0000       1.085813        29.5465 
 502   0.0000       1.090189        29.6655 
 503   0.0000       1.093026        29.7427 
 504   0.0000       1.098142        29.8820 
 505   0.0000       1.100518        29.9466 
 506   0.0000       1.105979        30.0952 
 507   0.0000       1.108872        30.1740 
 508   0.0000       1.111779        30.2530 
 509   0.0000       1.113158        30.2906 
 510   0.0000       1.116596        30.3841 
 511   0.0000       1.119146        30.4535 
 512   0.0000       1.121822        30.5263 
 513   0.0000       1.123473        30.5713 
 514   0.0000       1.124857        30.6089 
 515   0.0000       1.129569        30.7371 
 516   0.0000       1.131967        30.8024 
 517   0.0000       1.133156        30.8348 
 518   0.0000       1.138685        30.9852 
 519   0.0000       1.141617        31.0650 
 520   0.0000       1.145337        31.1662 
 521   0.0000       1.146406        31.1953 
 522   0.0000       1.147963        31.2376 
 523   0.0000       1.154121        31.4052 
 524   0.0000       1.155942        31.4548 
 525   0.0000       1.159601        31.5543 
 526   0.0000       1.165365        31.7112 
 527   0.0000       1.166280        31.7361 
 528   0.0000       1.168348        31.7924 
 529   0.0000       1.172907        31.9164 
 530   0.0000       1.175575        31.9890 
 531   0.0000       1.178955        32.0810 
 532   0.0000       1.180941        32.1350 
 533   0.0000       1.182103        32.1667 
 534   0.0000       1.185093        32.2480 
 535   0.0000       1.190569        32.3970 
 536   0.0000       1.192399        32.4468 
 537   0.0000       1.197368        32.5820 
 538   0.0000       1.199451        32.6387 
 539   0.0000       1.203785        32.7567 
 540   0.0000       1.205637        32.8071 
 541   0.0000       1.210852        32.9490 
 542   0.0000       1.212498        32.9937 
 543   0.0000       1.214082        33.0369 
 544   0.0000       1.217195        33.1216 
 545   0.0000       1.219846        33.1937 
 546   0.0000       1.224194        33.3120 
 547   0.0000       1.225690        33.3527 
 548   0.0000       1.227173        33.3931 
 549   0.0000       1.234150        33.5829 
 550   0.0000       1.236135        33.6370 
 551   0.0000       1.239764        33.7357 
 552   0.0000       1.245384        33.8886 
 553   0.0000       1.247194        33.9379 
 554   0.0000       1.249616        34.0038 
 555   0.0000       1.254418        34.1344 
 556   0.0000       1.257442        34.2167 
 557   0.0000       1.261665        34.3317 
 558   0.0000       1.264015        34.3956 
 559   0.0000       1.267890        34.5010 
 560   0.0000       1.275142        34.6984 
 561   0.0000       1.276970        34.7481 
 562   0.0000       1.279918        34.8283 
 563   0.0000       1.283431        34.9239 
 564   0.0000       1.284601        34.9558 
 565   0.0000       1.287064        35.0228 
 566   0.0000       1.289292        35.0834 
 567   0.0000       1.295170        35.2434 
 568   0.0000       1.296655        35.2838 
 569   0.0000       1.300318        35.3835 
 570   0.0000       1.304983        35.5104 
 571   0.0000       1.305570        35.5264 
 572   0.0000       1.306999        35.5652 
 573   0.0000       1.311408        35.6852 
 574   0.0000       1.315276        35.7905 
 575   0.0000       1.315969        35.8093 
 576   0.0000       1.321731        35.9661 
 577   0.0000       1.328663        36.1548 
 578   0.0000       1.332338        36.2548 
 579   0.0000       1.337963        36.4078 
 580   0.0000       1.341584        36.5063 
 581   0.0000       1.344374        36.5823 
 582   0.0000       1.345914        36.6242 
 583   0.0000       1.348178        36.6858 
 584   0.0000       1.351589        36.7786 
 585   0.0000       1.356300        36.9068 
 586   0.0000       1.361256        37.0417 
 587   0.0000       1.365662        37.1616 
 588   0.0000       1.367164        37.2024 
 589   0.0000       1.368766        37.2460 
 590   0.0000       1.374369        37.3985 
 591   0.0000       1.376412        37.4541 
 592   0.0000       1.380207        37.5573 
 593   0.0000       1.385417        37.6991 
 594   0.0000       1.391943        37.8767 
 595   0.0000       1.394260        37.9397 
 596   0.0000       1.400771        38.1169 
 597   0.0000       1.403890        38.2018 
 598   0.0000       1.404680        38.2233 
 599   0.0000       1.407443        38.2985 
 600   0.0000       1.408637        38.3310 
 601   0.0000       1.412452        38.4348 
 602   0.0000       1.412755        38.4430 
 603   0.0000       1.418388        38.5963 
 604   0.0000       1.424143        38.7529 
 605   0.0000       1.425772        38.7972 
 606   0.0000       1.429188        38.8902 
 607   0.0000       1.435359        39.0581 
 608   0.0000       1.441719        39.2312 
 609   0.0000       1.445720        39.3400 
 610   0.0000       1.448758        39.4227 
 611   0.0000       1.451249        39.4905 
 612   0.0000       1.453216        39.5440 
 613   0.0000       1.459407        39.7125 
 614   0.0000       1.460900        39.7531 
 615   0.0000       1.462031        39.7839 
 616   0.0000       1.464268        39.8447 
 617   0.0000       1.472000        40.0552 
 618   0.0000       1.478711        40.2378 
 619   0.0000       1.482108        40.3302 
 620   0.0000       1.483843        40.3774 
 621   0.0000       1.490119        40.5482 
 622   0.0000       1.492526        40.6137 
 623   0.0000       1.495748        40.7014 
 624   0.0000       1.501655        40.8621 
 625   0.0000       1.505469        40.9659 
 626   0.0000       1.508188        41.0399 
 627   0.0000       1.510380        41.0995 
 628   0.0000       1.512516        41.1577 
 629   0.0000       1.519057        41.3356 
 630   0.0000       1.520455        41.3737 
 631   0.0000       1.522210        41.4214 
 632   0.0000       1.524574        41.4858 
 633   0.0000       1.530224        41.6395 
 634   0.0000       1.533445        41.7271 
 635   0.0000       1.536911        41.8215 
 636   0.0000       1.541177        41.9376 
 637   0.0000       1.542475        41.9729 
 638   0.0000       1.549837        42.1732 
 639   0.0000       1.555043        42.3149 
 640   0.0000       1.557026        42.3688 
 641   0.0000       1.558354        42.4050 
 642   0.0000       1.561699        42.4960 
 643   0.0000       1.563590        42.5475 
 644   0.0000       1.567980        42.6669 
[...]
      py      :     0.109903
      dz2     :     0.033429  d :     0.215452
      dxz     :     0.029900
      dyz     :     0.043785
      dx2y2   :     0.051907
      dxy     :     0.056431
 31 H s       :     0.625616  s :     0.625616
      pz      :     0.073514  p :     0.283812
      px      :     0.079455
      py      :     0.130844
      dz2     :     0.037712  d :     0.217782
      dxz     :     0.012357
      dyz     :     0.050983
      dx2y2   :     0.043783
      dxy     :     0.072949
 32 H s       :     0.611031  s :     0.611031
      pz      :     0.075602  p :     0.292769
      px      :     0.111466
      py      :     0.105700
      dz2     :     0.033168  d :     0.225743
      dxz     :     0.049788
      dyz     :     0.020569
      dx2y2   :     0.079227
      dxy     :     0.042991
 33 H s       :     0.620912  s :     0.620912
      pz      :     0.131078  p :     0.310077
      px      :     0.092321
      py      :     0.086678
      dz2     :     0.059995  d :     0.227241
      dxz     :     0.071816
      dyz     :     0.065695
      dx2y2   :     0.003501
      dxy     :     0.026234
 34 H s       :     0.615776  s :     0.615776
      pz      :     0.088441  p :     0.308844
      px      :     0.087801
      py      :     0.132602
      dz2     :     0.035338  d :     0.230702
      dxz     :     0.028339
      dyz     :     0.046637
      dx2y2   :     0.062332
      dxy     :     0.058057
 35 H s       :     0.627006  s :     0.627006
      pz      :     0.082195  p :     0.300380
      px      :     0.099915
      py      :     0.118270
      dz2     :     0.020706  d :     0.221789
      dxz     :     0.043312
      dyz     :     0.036855
      dx2y2   :     0.077395
      dxy     :     0.043521
 36 H s       :     0.652414  s :     0.652414
      pz      :     0.112065  p :     0.299376
      px      :     0.092286
      py      :     0.095026
      dz2     :     0.065960  d :     0.215370
      dxz     :     0.040899
      dyz     :     0.038630
      dx2y2   :     0.033421
      dxy     :     0.036459
 37 H s       :     0.666391  s :     0.666391
      pz      :     0.080466  p :     0.296942
      px      :     0.121493
      py      :     0.094984
      dz2     :     0.027101  d :     0.212746
      dxz     :     0.057937
      dyz     :     0.022375
      dx2y2   :     0.052685
      dxy     :     0.052649
 38 H s       :     0.667792  s :     0.667792
      pz      :     0.133392  p :     0.301487
      px      :     0.083710
      py      :     0.084385
      dz2     :     0.065080  d :     0.213329
      dxz     :     0.066477
      dyz     :     0.061865
      dx2y2   :     0.009437
      dxy     :     0.010470
 39 H s       :     0.663357  s :     0.663357
      pz      :     0.103495  p :     0.289533
      px      :     0.095544
      py      :     0.090494
      dz2     :     0.066012  d :     0.210484
      dxz     :     0.037771
      dyz     :     0.037580
      dx2y2   :     0.032711
      dxy     :     0.036410


                      *****************************
                      * MAYER POPULATION ANALYSIS *
                      *****************************

  NA   - Mulliken gross atomic population
  ZA   - Total nuclear charge
  QA   - Mulliken gross atomic charge
  VA   - Mayer's total valence
  BVA  - Mayer's bonded valence
  FA   - Mayer's free valence

  ATOM       NA         ZA         QA         VA         BVA        FA
  0 C      5.8948     6.0000     0.1052     3.6348     3.6348    -0.0000
  1 C      5.1465     6.0000     0.8535     2.5569     2.5569     0.0000
  2 Cl    17.5365    17.0000    -0.5365     0.3525     0.3525    -0.0000
  3 C      6.4385     6.0000    -0.4385     2.3629     2.3629    -0.0000
  4 H      0.5305     1.0000     0.4695     0.8129     0.8129     0.0000
  5 C      6.8630     6.0000    -0.8630     2.1325     2.1325    -0.0000
  6 C      4.2894     6.0000     1.7106     0.3192     0.3192    -0.0000
  7 C      7.5059     6.0000    -1.5059     2.9500     2.9500     0.0000
  8 S     13.8777    16.0000     2.1223     4.4613     4.4613    -0.0000
  9 O      9.0012     8.0000    -1.0012     1.3903     1.3903    -0.0000
 10 O      8.9991     8.0000    -0.9991     1.5024     1.5024     0.0000
 11 N      7.7933     7.0000    -0.7933     2.6368     2.6368    -0.0000
 12 H      0.9382     1.0000     0.0618     1.1206     1.1206    -0.0000
 13 H      0.6094     1.0000     0.3906     0.7337     0.7337     0.0000
 14 H      0.3422     1.0000     0.6578     0.1382     0.1382     0.0000
 15 H      0.7124     1.0000     0.2876     1.0745     1.0745     0.0000
 16 C      5.5784     6.0000     0.4216     2.2458     2.2458    -0.0000
 17 N      7.6752     7.0000    -0.6752     1.9815     1.9815     0.0000
 18 O      9.1034     8.0000    -1.1034     0.8118     0.8118    -0.0000
 19 N      5.7162     7.0000     1.2838     0.2459     0.2459     0.0000
 20 C      6.3050     6.0000    -0.3050     3.5639     3.5639    -0.0000
 21 C      6.4572     6.0000    -0.4572     3.3874     3.3874     0.0000
 22 C      5.3714     6.0000     0.6286     2.1884     2.1884    -0.0000
 23 C      5.8217     6.0000     0.1783     3.1510     3.1510    -0.0000
 24 C      7.0183     6.0000    -1.0183     3.7354     3.7354    -0.0000
 25 C      6.9272     6.0000    -0.9272     3.2277     3.2277    -0.0000
 26 C      6.3962     6.0000    -0.3962     3.1419     3.1419     0.0000
 27 C      6.5002     6.0000    -0.5002     2.9915     2.9915     0.0000
 28 C      6.5280     6.0000    -0.5280     3.5399     3.5399     0.0000
 29 H      1.0836     1.0000    -0.0836     1.1898     1.1898     0.0000
 30 H      0.7598     1.0000     0.2402     1.0388     1.0388    -0.0000
 31 H      0.7243     1.0000     0.2757     0.8631     0.8631     0.0000
 32 H      0.8013     1.0000     0.1987     1.0770     1.0770     0.0000
 33 H      0.7235     1.0000     0.2765     1.0196     1.0196     0.0000
 34 H      0.6082     1.0000     0.3918     0.9026     0.9026    -0.0000
 35 H      0.8585     1.0000     0.1415     1.0541     1.0541     0.0000
 36 H      0.6117     1.0000     0.3883     0.7725     0.7725     0.0000
 37 H      0.7380     1.0000     0.2620     1.0548     1.0548    -0.0000
 38 H      0.2572     1.0000     0.7428     0.0028     0.0028    -0.0000
 39 H      0.9571     1.0000     0.0429     1.4132     1.4132     0.0000

  Mayer bond orders larger than 0.100000
B(  0-C ,  1-C ) :   0.8985 B(  0-C ,  2-Cl) :   0.9536 B(  0-C ,  5-C ) :  -0.2928 
B(  0-C ,  6-C ) :   0.3811 B(  0-C ,  7-C ) :   0.8869 B(  0-C ,  8-S ) :   0.6855 
B(  0-C ,  9-O ) :   0.2120 B(  0-C , 10-O ) :  -0.1399 B(  0-C , 11-N ) :   0.1007 
B(  0-C , 16-C ) :   0.1059 B(  0-C , 23-C ) :  -0.1129 B(  0-C , 26-C ) :   0.1119 
B(  1-C ,  2-Cl) :  -0.4832 B(  1-C ,  3-C ) :   1.2106 B(  1-C ,  5-C ) :   0.3473 
B(  1-C ,  7-C ) :   0.6798 B(  1-C ,  8-S ) :   0.2230 B(  1-C ,  9-O ) :  -0.1025 
B(  1-C , 11-N ) :  -0.1103 B(  1-C , 14-H ) :  -0.1221 B(  3-C ,  4-H ) :   0.6761 
B(  3-C ,  5-C ) :   0.9665 B(  3-C ,  7-C ) :  -0.2415 B(  3-C , 22-C ) :  -0.1123 
B(  3-C , 25-C ) :  -0.1010 B(  3-C , 27-C ) :  -0.2107 B(  3-C , 28-C ) :   0.1512 
B(  3-C , 37-H ) :   0.3581 B(  3-C , 38-H ) :  -0.2615 B(  3-C , 39-H ) :   0.2547 
B(  5-C ,  6-C ) :   0.1206 B(  5-C ,  7-C ) :   0.2011 B(  5-C , 15-H ) :   0.9491 
B(  5-C , 16-C ) :  -0.2837 B(  5-C , 17-N ) :   0.1265 B(  5-C , 19-N ) :  -0.1034 
B(  5-C , 22-C ) :   0.2030 B(  5-C , 23-C ) :   0.2037 B(  5-C , 26-C ) :  -0.2398 
B(  5-C , 27-C ) :   0.1486 B(  5-C , 36-H ) :   0.1048 B(  5-C , 37-H ) :  -0.4889 
B(  5-C , 38-H ) :   0.4230 B(  5-C , 39-H ) :  -0.3675 B(  6-C , 14-H ) :  -0.2166 
B(  6-C , 17-N ) :  -0.5278 B(  6-C , 18-O ) :   0.1661 B(  6-C , 19-N ) :   0.4005 
B(  6-C , 26-C ) :   0.1345 B(  6-C , 39-H ) :   0.1212 B(  7-C ,  8-S ) :   0.1986 
B(  7-C , 10-O ) :   0.1223 B(  7-C , 14-H ) :   0.4383 B(  7-C , 15-H ) :   0.1145 
B(  7-C , 16-C ) :   0.4441 B(  7-C , 19-N ) :  -0.2123 B(  7-C , 25-C ) :   0.1545 
B(  8-S ,  9-O ) :   1.1320 B(  8-S , 10-O ) :   1.3985 B(  8-S , 11-N ) :   0.8943 
B( 11-N , 12-H ) :   1.0104 B( 11-N , 13-H ) :   0.5923 B( 14-H , 17-N ) :   0.2542 
B( 14-H , 19-N ) :  -0.1849 B( 14-H , 25-C ) :   0.1032 B( 15-H , 18-O ) :   0.1524 
B( 15-H , 38-H ) :  -0.1309 B( 16-C , 17-N ) :   1.3733 B( 16-C , 18-O ) :   0.4339 
B( 16-C , 19-N ) :   0.1269 B( 16-C , 23-C ) :   0.1211 B( 17-N , 18-O ) :  -0.1578 
B( 17-N , 19-N ) :  -0.1674 B( 17-N , 22-C ) :  -0.1313 B( 17-N , 29-H ) :   1.1864 
B( 18-O , 19-N ) :   0.2119 B( 19-N , 20-C ) :   0.7218 B( 19-N , 22-C ) :  -0.2264 
B( 19-N , 23-C ) :   0.4586 B( 19-N , 25-C ) :  -0.5469 B( 19-N , 30-H ) :  -0.1551 
B( 19-N , 37-H ) :  -0.1577 B( 19-N , 38-H ) :   0.1465 B( 19-N , 39-H ) :  -0.1472 
B( 20-C , 21-C ) :   0.9532 B( 20-C , 22-C ) :   0.2925 B( 20-C , 24-C ) :   0.7800 
B( 20-C , 30-H ) :   0.9393 B( 21-C , 22-C ) :   0.3158 B( 21-C , 23-C ) :   0.1484 
B( 21-C , 25-C ) :  -0.2336 B( 21-C , 28-C ) :   0.1463 B( 21-C , 31-H ) :   1.0261 
B( 21-C , 32-H ) :   1.0882 B( 21-C , 39-H ) :  -0.1425 B( 22-C , 23-C ) :   0.9028 
B( 22-C , 25-C ) :  -0.1392 B( 22-C , 27-C ) :   0.7262 B( 22-C , 28-C ) :   0.9266 
B( 22-C , 36-H ) :  -0.1467 B( 22-C , 37-H ) :   0.2620 B( 22-C , 38-H ) :  -0.2857 
B( 22-C , 39-H ) :  -0.1647 B( 23-C , 25-C ) :   1.1666 B( 23-C , 26-C ) :  -0.1160 
B( 23-C , 27-C ) :  -0.2056 B( 23-C , 28-C ) :  -0.1105 B( 23-C , 30-H ) :   0.1106 
B( 23-C , 37-H ) :   0.1587 B( 23-C , 39-H ) :   0.3767 B( 24-C , 33-H ) :   0.9802 
B( 24-C , 34-H ) :   0.8652 B( 24-C , 35-H ) :   1.0777 B( 25-C , 26-C ) :   1.1454 
B( 25-C , 27-C ) :   0.4129 B( 25-C , 28-C ) :   0.2889 B( 25-C , 36-H ) :   0.8417 
B( 25-C , 37-H ) :  -0.1785 B( 25-C , 39-H ) :   0.1674 B( 26-C , 27-C ) :   1.1649 
B( 26-C , 28-C ) :  -0.3306 B( 26-C , 37-H ) :   1.0552 B( 26-C , 38-H ) :   0.1451 
B( 27-C , 28-C ) :   0.9965 B( 27-C , 37-H ) :  -0.1790 B( 27-C , 38-H ) :   0.1654 
B( 27-C , 39-H ) :  -0.1055 B( 28-C , 37-H ) :   0.1206 B( 28-C , 38-H ) :   0.1712 
B( 28-C , 39-H ) :   1.4274 

-------
TIMINGS
-------

Total SCF time: 0 days 0 hours 16 min 29 sec 

Total time                  ....     989.208 sec
Sum of individual times     ....     982.353 sec  ( 99.3%)

Fock matrix formation       ....     958.112 sec  ( 96.9%)
  Split-RI-J                ....      56.799 sec  (  5.9% of F)
  Chain of spheres X        ....     801.497 sec  ( 83.7% of F)
  XC integration            ....      96.866 sec  ( 10.1% of F)
    Basis function eval.    ....      11.397 sec  ( 11.8% of XC)
    Density eval.           ....      43.300 sec  ( 44.7% of XC)
    XC-Functional eval.     ....       0.485 sec  (  0.5% of XC)
    XC-Potential eval.      ....      29.715 sec  ( 30.7% of XC)
Diagonalization             ....       3.314 sec  (  0.3%)
Density matrix formation    ....       0.500 sec  (  0.1%)
Population analysis         ....       0.808 sec  (  0.1%)
Initial guess               ....       5.012 sec  (  0.5%)
Orbital Transformation      ....       0.000 sec  (  0.0%)
Orbital Orthonormalization  ....       0.000 sec  (  0.0%)
DIIS solution               ....       2.457 sec  (  0.2%)
SOSCF solution              ....       3.733 sec  (  0.4%)
Grid generation             ....       8.418 sec  (  0.9%)

Maximum memory used throughout the entire SCF-calculation: 510.0 MB


           ************************************************************
           *        Program running with 8 parallel MPI-processes     *
           *              working on a common directory               *
           ************************************************************

------------------------------------------------------------------------------
                                ORCA  MP2 
------------------------------------------------------------------------------

Freezing NCore=64 chemical core electrons

   <<< Use J-auxbasis for calculation of Separable RI-J derivative contributions (Dim=1356) >>> 


-------------
RI-MP2 ENERGY
-------------
Dimension of the basis                    ... 1480
Memory devoted to MP2                     ... 3000 MB   
Data format for buffers                   ... DOUBLE
Compression type for matrix containers    ... UNCOMPRESSED
Scaling for aa/bb pairs                   ...   2.500e-01
Scaling for ab pairs                      ...   5.300e-01
Overall scaling of the MP2 energy         ...   1.000e+00
Calculating two index integrals           ... done (    0.143 sec)
Cholesky decomposition of V**-1           ... done (    1.216 sec)

-----------------
RI-TRANSFORMATION (AUX index driven)
-----------------

Dimension of the orbital-basis         ... 1480
Dimension of the aux-basis             ... 3362
Transformation of internal/external MOs...   32-  94 to   95-1479
Number Format for Storage              ... Double (8 Byte)
Integral mode                          ... Direct

First Phase: integral generation and transformation of MO indices
  Aux angular momentum 0               ... done (    2.632 sec)
  Aux angular momentum 1               ... done (    5.067 sec)
  Aux angular momentum 2               ... done (    6.754 sec)
  Aux angular momentum 3               ... done (    5.936 sec)
  Aux angular momentum 4               ... done (    3.679 sec)
Closing buffer VIA ( 2.19 GB; CompressionRatio= 1.00)
  Phase 1 completed in    24.437 sec
Second Phase: sorting and transformation of aux index

IA-Transformation
Memory available                       ... 2815 MB 
Max. # MO pairs treated in a batch     ... 8    
# of internal orbitals                 ... 63
# batches for internal orbitals        ... 1
Closing buffer IAV ( 2.19 GB; CompressionRatio= 1.00)
(ia|v) transformation done in     4.719 sec

  Phase 2 completed in     5.179 sec
RI-Integral transformation completed in    29.621 sec
Opening buffers                              ... done

Starting loop over batches of integrals:

Operator 0  - window                       ... ( 32- 94)x( 95-1479)
Operator 0  - Memory available             ...  3000 MB
Operator 0  - Memory needed per MO         ...  35.5 MB
Operator 0  - Number of orbitals per batch ... 8
Operator 0  - Number of batches            ... 1

OPERATOR  0   PASS   0:  MOs    32 ...   39 +   40 ...   47 +   48 ...   55 +   56 ...   63
                            +   64 ...   71 +   72 ...   79 +   80 ...   87 +   88 ...   94
  Reading integrals       ... ok
  Internal MO  34
  Internal MO  37
Time spent in pair loops =     8.152 sec
Deleting buffer (Ka|jb)[aa] ...done

-----------------------------------------------
 RI-MP2 CORRELATION ENERGY:     -2.232660457 Eh
-----------------------------------------------


-------
TIMINGS
-------

Total time                :  122.966 sec
Integral trafo            :   29.644 sec ( 24.1%)
I/O of integrals          :    0.175 sec (  0.1%)
K(i,j) Operators          :    6.869 sec (  5.6%)
T(i,j) pair energies      :    0.736 sec (  0.6%)
V-calculation             :    0.143 sec (  0.1%)
V**(-1/2)                 :    1.216 sec (  1.0%)
Gamma(ia|P)               :    0.000 sec (  0.0%)
Gamma-Trafo               :    0.000 sec (  0.0%)
D(virtual)                :    0.000 sec (  0.0%)
D(internal)               :    0.000 sec (  0.0%)
W(virtual)                :    0.000 sec (  0.0%)
W(internal)               :    0.000 sec (  0.0%)
L(virtual)                :    0.000 sec (  0.0%)
L(internal)               :    0.000 sec (  0.0%)
G(D)                      :    0.000 sec (  0.0%)
G(Z)                      :    0.000 sec (  0.0%)
Z-Vector Solution         :    0.000 sec (  0.0%)
3-Index Derivative        :    0.000 sec (  0.0%)
2-Index Derivative        :    0.000 sec (  0.0%)
Separable Gradient (RIJ)  :    0.000 sec (  0.0%)
Separable Gradient (COSX) :    0.000 sec (  0.0%)


---------------------------------------
MP2 TOTAL ENERGY:    -1865.631864523 Eh
---------------------------------------

Maximum memory used throughout the entire MP2-calculation: 587.4 MB


-------------------------------------------------------------------------------
                          DFT DISPERSION CORRECTION                            
                                                                               
                              DFTD3 V3.1  Rev 1                                
                          USING Becke-Johnson damping                          
-------------------------------------------------------------------------------
The DSD-PBEP86 functional is recognized
Active option DFTDOPT                   ...         4   

molecular C6(AA) [au] = 22111.645655 


            DFT-D V3
 parameters
 s6 scaling factor         :     0.4180 
 a1 scaling factor         :     0.0000 
 s8 scaling factor         :     0.0000 
 a2 scaling factor         :     5.6500 
 ad hoc parameters k1-k3   :    16.0000     1.3333    -4.0000 

 Edisp/kcal,au: -22.335475402969  -0.035593841916 
 E6   /kcal   : -22.335475403 
 E8   /kcal   :  -0.000000000 
 % E8         :   0.000000000 

-------------------------   ----------------
Dispersion correction           -0.035593842
-------------------------   ----------------


-------------------------   --------------------
FINAL SINGLE POINT ENERGY     -1865.667458365385
-------------------------   --------------------


                            ***************************************
                            *     ORCA property calculations      *
                            ***************************************


  WARNING: The energy has been calculated at the MP2 level but the densities
           used in the property calculations are still SCF densities
           MP2 response densities have not been calculated 
           use %mp2 Density relaxed end
           or  %mp2 Density unrelaxed end

                                    ---------------------
                                    Active property flags
                                    ---------------------
   (+) Dipole Moment


------------------------------------------------------------------------------
                       ORCA ELECTRIC PROPERTIES CALCULATION
------------------------------------------------------------------------------

Dipole Moment Calculation                       ... on
Quadrupole Moment Calculation                   ... off
Polarizability Calculation                      ... off
GBWName                                         ... HA.37.avtz.gbw
Electron density                                ... HA.37.avtz.scfp
The origin for moment calculation is the CENTER OF MASS  = (-1.740374, -0.995185 -1.338181)

-------------
DIPOLE MOMENT
-------------
                                X             Y             Z
Electronic contribution:     -8.86800      24.99860      -3.01439
Nuclear contribution   :      9.60759     -27.55901       2.79061
                        -----------------------------------------
Total Dipole Moment    :      0.73959      -2.56041      -0.22378
                        -----------------------------------------
Magnitude (a.u.)       :      2.67447
Magnitude (Debye)      :      6.79796



--------------------
Rotational spectrum 
--------------------
 
Rotational constants in cm-1:     0.009563     0.006205     0.004621 
Rotational constants in MHz :   286.684041   186.023310   138.536270 

 Dipole components along the rotational axes: 
x,y,z [a.u.] :     2.472045    -0.838325    -0.582224 
x,y,z [Debye]:     6.283439    -2.130852    -1.479896 

 

Timings for individual modules:

Sum of individual times         ...     1122.373 sec (=  18.706 min)
GTO integral calculation        ...        6.440 sec (=   0.107 min)   0.6 %
SCF iterations                  ...      990.989 sec (=  16.516 min)  88.3 %
MP2 module                      ...      124.945 sec (=   2.082 min)  11.1 %
                             ****ORCA TERMINATED NORMALLY****
TOTAL RUN TIME: 0 days 0 hours 18 minutes 46 seconds 372 msec
