
                                 *****************
                                 * O   R   C   A *
                                 *****************

                                            #,                                       
                                            ###                                      
                                            ####                                     
                                            #####                                    
                                            ######                                   
                                           ########,                                 
                                     ,,################,,,,,                         
                               ,,#################################,,                 
                          ,,##########################################,,             
                       ,#########################################, ''#####,          
                    ,#############################################,,   '####,        
                  ,##################################################,,,,####,       
                ,###########''''           ''''###############################       
              ,#####''   ,,,,##########,,,,          '''####'''          '####       
            ,##' ,,,,###########################,,,                        '##       
           ' ,,###''''                  '''############,,,                           
         ,,##''                                '''############,,,,        ,,,,,,###''
      ,#''                                            '''#######################'''  
     '                                                          ''''####''''         
             ,#######,   #######,   ,#######,      ##                                
            ,#'     '#,  ##    ##  ,#'     '#,    #''#        ######   ,####,        
            ##       ##  ##   ,#'  ##            #'  '#       #        #'  '#        
            ##       ##  #######   ##           ,######,      #####,   #    #        
            '#,     ,#'  ##    ##  '#,     ,#' ,#      #,         ##   #,  ,#        
             '#######'   ##     ##  '#######'  #'      '#     #####' # '####'        



                  #######################################################
                  #                        -***-                        #
                  #          Department of theory and spectroscopy      #
                  #    Directorship and core code : Frank Neese         #
                  #        Max Planck Institute fuer Kohlenforschung    #
                  #                Kaiser Wilhelm Platz 1               #
                  #                 D-45470 Muelheim/Ruhr               #
                  #                      Germany                        #
                  #                                                     #
                  #                  All rights reserved                #
                  #                        -***-                        #
                  #######################################################


                         Program Version 5.0.3 -  RELEASE  -


 With contributions from (in alphabetic order):
   Daniel Aravena         : Magnetic Suceptibility
   Michael Atanasov       : Ab Initio Ligand Field Theory (pilot matlab implementation)
   Alexander A. Auer      : GIAO ZORA, VPT2 properties, NMR spectrum
   Ute Becker             : Parallelization
   Giovanni Bistoni       : ED, misc. LED, open-shell LED, HFLD
   Martin Brehm           : Molecular dynamics
   Dmytro Bykov           : SCF Hessian
   Vijay G. Chilkuri      : MRCI spin determinant printing, contributions to CSF-ICE
   Dipayan Datta          : RHF DLPNO-CCSD density
   Achintya Kumar Dutta   : EOM-CC, STEOM-CC
   Dmitry Ganyushin       : Spin-Orbit,Spin-Spin,Magnetic field MRCI
   Miquel Garcia          : C-PCM and meta-GGA Hessian, CC/C-PCM, Gaussian charge scheme
   Yang Guo               : DLPNO-NEVPT2, F12-NEVPT2, CIM, IAO-localization
   Andreas Hansen         : Spin unrestricted coupled pair/coupled cluster methods
   Benjamin Helmich-Paris : MC-RPA, TRAH-SCF, COSX integrals
   Lee Huntington         : MR-EOM, pCC
   Robert Izsak           : Overlap fitted RIJCOSX, COSX-SCS-MP3, EOM
   Marcus Kettner         : VPT2
   Christian Kollmar      : KDIIS, OOCD, Brueckner-CCSD(T), CCSD density, CASPT2, CASPT2-K
   Simone Kossmann        : Meta GGA functionals, TD-DFT gradient, OOMP2, MP2 Hessian
   Martin Krupicka        : Initial AUTO-CI
   Lucas Lang             : DCDCAS
   Marvin Lechner         : AUTO-CI (C++ implementation), FIC-MRCC
   Dagmar Lenk            : GEPOL surface, SMD
   Dimitrios Liakos       : Extrapolation schemes; Compound Job, initial MDCI parallelization
   Dimitrios Manganas     : Further ROCIS development; embedding schemes
   Dimitrios Pantazis     : SARC Basis sets
   Anastasios Papadopoulos: AUTO-CI, single reference methods and gradients
   Taras Petrenko         : DFT Hessian,TD-DFT gradient, ASA, ECA, R-Raman, ABS, FL, XAS/XES, NRVS
   Peter Pinski           : DLPNO-MP2, DLPNO-MP2 Gradient
   Christoph Reimann      : Effective Core Potentials
   Marius Retegan         : Local ZFS, SOC
   Christoph Riplinger    : Optimizer, TS searches, QM/MM, DLPNO-CCSD(T), (RO)-DLPNO pert. Triples
   Tobias Risthaus        : Range-separated hybrids, TD-DFT gradient, RPA, STAB
   Michael Roemelt        : Original ROCIS implementation
   Masaaki Saitow         : Open-shell DLPNO-CCSD energy and density
   Barbara Sandhoefer     : DKH picture change effects
   Avijit Sen             : IP-ROCIS
   Kantharuban Sivalingam : CASSCF convergence, NEVPT2, FIC-MRCI
   Bernardo de Souza      : ESD, SOC TD-DFT
   Georgi Stoychev        : AutoAux, RI-MP2 NMR, DLPNO-MP2 response
   Willem Van den Heuvel  : Paramagnetic NMR
   Boris Wezisla          : Elementary symmetry handling
   Frank Wennmohs         : Technical directorship


 We gratefully acknowledge several colleagues who have allowed us to
 interface, adapt or use parts of their codes:
   Stefan Grimme, W. Hujo, H. Kruse, P. Pracht,  : VdW corrections, initial TS optimization,
                  C. Bannwarth, S. Ehlert          DFT functionals, gCP, sTDA/sTD-DF
   Ed Valeev, F. Pavosevic, A. Kumar             : LibInt (2-el integral package), F12 methods
   Garnet Chan, S. Sharma, J. Yang, R. Olivares  : DMRG
   Ulf Ekstrom                                   : XCFun DFT Library
   Mihaly Kallay                                 : mrcc  (arbitrary order and MRCC methods)
   Jiri Pittner, Ondrej Demel                    : Mk-CCSD
   Frank Weinhold                                : gennbo (NPA and NBO analysis)
   Christopher J. Cramer and Donald G. Truhlar   : smd solvation model
   Lars Goerigk                                  : TD-DFT with DH, B97 family of functionals
   V. Asgeirsson, H. Jonsson                     : NEB implementation
   FAccTs GmbH                                   : IRC, NEB, NEB-TS, DLPNO-Multilevel, CI-OPT
                                                   MM, QMMM, 2- and 3-layer-ONIOM, Crystal-QMMM,
                                                   LR-CPCM, SF, NACMEs, symmetry and pop. for TD-DFT,
                                                   nearIR, NL-DFT gradient (VV10), updates on ESD,
                                                   ML-optimized integration grids
   S Lehtola, MJT Oliveira, MAL Marques          : LibXC Library
   Liviu Ungur et al                             : ANISO software


 Your calculation uses the libint2 library for the computation of 2-el integrals
 For citations please refer to: http://libint.valeyev.net

 Your ORCA version has been built with support for libXC version: 5.1.0
 For citations please refer to: https://tddft.org/programs/libxc/

 This ORCA versions uses:
   CBLAS   interface :  Fast vector & matrix operations
   LAPACKE interface :  Fast linear algebra routines
   SCALAPACK package :  Parallel linear algebra routines
   Shared memory     :  Shared parallel matrices
   BLAS/LAPACK       :  OpenBLAS 0.3.15  USE64BITINT DYNAMIC_ARCH NO_AFFINITY SkylakeX SINGLE_THREADED
        Core in use  :  SkylakeX
   Copyright (c) 2011-2014, The OpenBLAS Project


Your calculation utilizes the atom-pairwise dispersion correction
with the Becke-Johnson damping scheme (D3BJ)
Cite in your paper:
S.Grimme, S.Ehrlich, L.Goerigk, J Comput Chem, (2011), 32, 1456–1465 
S.Grimme, J.Antony, S.Ehrlich and H.Krieg, J.Chem.Phys., 132, (2010), 154104 
   

================================================================================

----- Orbital basis set information -----
Your calculation utilizes the basis: aug-cc-pVTZ 
    H, B-Ne : Obtained from the ccRepo (grant-hill.group.shef.ac.uk/ccrepo) Feb. 2017
              R. A. Kendall, T. H. Dunning, Jr., R. J. Harrison, J. Chem. Phys. 96, 6796 (1992)
         He : Obtained from the ccRepo (grant-hill.group.shef.ac.uk/ccrepo) Feb. 2017
              D. E. Woon, T. H. Dunning, Jr., J. Chem. Phys. 100, 2975 (1994)
  Li-Be, Na : Obtained from the ccRepo (grant-hill.group.shef.ac.uk/ccrepo) Feb. 2017
              B. P. Prascher, D. E. Woon, K. A. Peterson, T. H. Dunning, Jr., A. K. Wilson, Theor. Chem. Acc. 128, 69 (2011)
         Mg : Obtained from the Peterson Research Group Website (tyr0.chem.wsu.edu/~kipeters) Feb. 2017
              B. P. Prascher, D. E. Woon, K. A. Peterson, T. H. Dunning, Jr., A. K. Wilson, Theor. Chem. Acc. 128, 69 (2011)
      Al-Ar : Obtained from the ccRepo (grant-hill.group.shef.ac.uk/ccrepo) Feb. 2017
              D. E. Woon, T. H. Dunning, Jr., J. Chem. Phys. 98, 1358 (1993)
      Sc-Zn : Obtained from the ccRepo (grant-hill.group.shef.ac.uk/ccrepo) Feb. 2017
              N. B. Balabanov, K. A. Peterson, J. Chem. Phys. 123, 064107 (2005)
              N. B. Balabanov, K. A. Peterson, J. Chem. Phys. 125, 074110 (2006)
      Ga-Kr : Obtained from the ccRepo (grant-hill.group.shef.ac.uk/ccrepo) Feb. 2017
              A. K. Wilson, D. E. Woon, K. A. Peterson, T. H. Dunning, Jr., J. Chem. Phys. 110, 7667 (1999)
     Ag, Au : Obtained from the Peterson Research Group Website (tyr0.chem.wsu.edu/~kipeters) Feb. 2017
              K. A. Peterson, C. Puzzarini, Theor. Chem. Acc. 114, 283 (2005)

----- AuxJ basis set information -----
Your calculation utilizes the auxiliary basis: def2/J
   F. Weigend, Phys. Chem. Chem. Phys. 8, 1057 (2006).

----- AuxC basis set information -----
Your calculation utilizes the auxiliary basis: aug-cc-pVTZ/C 
  H-He, B-F, Al-Ar, Ga-Kr : Obtained from the EMSL Basis Set Exchange (bse.pnl.gov) Feb. 2017
                            F. Weigend, A. Kohn, C. Hattig, J. Chem. Phys. 116, 3175 (2002)
                   Be, Mg : Obtained from the TURBOMOLE 7.0 basis set library
                            C. Haettig, Phys. Chem. Chem. Phys. 7, 59 (2005)
                       Ne : Obtained from the EMSL Basis Set Exchange (bse.pnl.gov) Feb. 2017
                            C. Haettig, Phys. Chem. Chem. Phys. 7, 59 (2005)
                            F. Weigend, A. Kohn, C. Hattig, J. Chem. Phys. 116, 3175 (2002)
                    Sc-Zn : Obtained from the EMSL Basis Set Exchange (bse.pnl.gov) Feb. 2017
                            J. G. Hill, J. A. Platts, J. Chem. Phys. 128, 044104 (2008)

================================================================================
                                        WARNINGS
                       Please study these warnings very carefully!
================================================================================


WARNING: No MP2 level density has been requested!
         To caclulate MP2 level properties use
         %mp2 Density relaxed end
         or
         %mp2 Density unrelaxed end
         Otherwise for double-hybrid DFT only the energy is correct!

WARNING: There are different parametrizations of Gershom Martin's DSD-DFs
         for use with and without D3(BJ)!
         You are using the D3(BJ) parametrized version,
         consistent with the GMTKN55 benchmark (L. Goerigk et al., PCCP 2017, 19, 32184)

WARNING: The frozen-core approximation is turned on by default for 
         the MP2 part of double-hybrid DFT.

INFO   : the flag for use of the SHARK integral package has been found!

================================================================================
                                       INPUT FILE
================================================================================
NAME = HA.32.avtz.com
|  1> !PAL8
|  2> !RI-DSD-PBEP86 D3BJ aug-cc-pVTZ aug-cc-pVTZ/C TightSCF
|  3> %maxcore 3000
|  4> 
|  5> 
|  6> * xyz 0 1
|  7> C -1.416353229  0.6845092375 -0.765743524
|  8> C -2.5453933215  0.6377548153 -1.5965784962
|  9> Cl -4.1536249863  0.7156957628 -0.9411666046
| 10> C -2.4254991167  0.558508184 -2.9715649039
| 11> H -3.3214416471  0.5463438024 -3.5845405167
| 12> C -1.1567978016  0.5027031258 -3.5795243532
| 13> C -0.0320740585  0.540459784 -2.730052252
| 14> S  1.5867145398  0.4192040566 -3.4323218662
| 15> C -0.1575137511  0.640866465 -1.3532140998
| 16> H  0.7273490996  0.6886404362 -0.7227973651
| 17> S -1.4967087551  0.7495691105  1.0226146817
| 18> O -2.3781381191 -0.3078819812  1.4717005001
| 19> O -0.1209821643  0.8660066612  1.4684863346
| 20> N -2.2310552382  2.1761157293  1.4404445911
| 21> H -3.2110907346  2.216447641  1.1728511423
| 22> H -1.6991335716  2.9943609065  1.1556705936
| 23> N -1.0467150517  0.4694352191 -4.9404995151
| 24> C  0.2202514323  0.3615688933 -5.6418966807
| 25> N  1.2058151466  1.149986685 -4.9054232629
| 26> O  2.5220776965  1.2825797982 -2.7387707118
| 27> O  1.9077029023 -0.986280193 -3.6424107698
| 28> H  0.1063004231  0.8057391644 -6.6321662672
| 29> H  2.0634051271  1.3250337167 -5.4294797877
| 30> H -1.8928735992  0.3548912875 -5.479101853
| 31> H  0.531294778 -0.6885083079 -5.7408370137
| 32> *
| 33> 
| 34>                          ****END OF INPUT****
================================================================================

                       ****************************
                       * Single Point Calculation *
                       ****************************

---------------------------------
CARTESIAN COORDINATES (ANGSTROEM)
---------------------------------
  C     -1.416353    0.684509   -0.765744
  C     -2.545393    0.637755   -1.596578
  Cl    -4.153625    0.715696   -0.941167
  C     -2.425499    0.558508   -2.971565
  H     -3.321442    0.546344   -3.584541
  C     -1.156798    0.502703   -3.579524
  C     -0.032074    0.540460   -2.730052
  S      1.586715    0.419204   -3.432322
  C     -0.157514    0.640866   -1.353214
  H      0.727349    0.688640   -0.722797
  S     -1.496709    0.749569    1.022615
  O     -2.378138   -0.307882    1.471701
  O     -0.120982    0.866007    1.468486
  N     -2.231055    2.176116    1.440445
  H     -3.211091    2.216448    1.172851
  H     -1.699134    2.994361    1.155671
  N     -1.046715    0.469435   -4.940500
  C      0.220251    0.361569   -5.641897
  N      1.205815    1.149987   -4.905423
  O      2.522078    1.282580   -2.738771
  O      1.907703   -0.986280   -3.642411
  H      0.106300    0.805739   -6.632166
  H      2.063405    1.325034   -5.429480
  H     -1.892874    0.354891   -5.479102
  H      0.531295   -0.688508   -5.740837

----------------------------
CARTESIAN COORDINATES (A.U.)
----------------------------
  NO LB      ZA    FRAG     MASS         X           Y           Z
   0 C     6.0000    0    12.011   -2.676520    1.293535   -1.447046
   1 C     6.0000    0    12.011   -4.810096    1.205182   -3.017096
   2 Cl   17.0000    0    35.453   -7.849214    1.352469   -1.778547
   3 C     6.0000    0    12.011   -4.583529    1.055428   -5.615444
   4 H     1.0000    0     1.008   -6.276615    1.032440   -6.773800
   5 C     6.0000    0    12.011   -2.186031    0.949971   -6.764321
   6 C     6.0000    0    12.011   -0.060611    1.021321   -5.159051
   7 S    16.0000    0    32.060    2.998456    0.792181   -6.486148
   8 C     6.0000    0    12.011   -0.297658    1.211062   -2.557204
   9 H     1.0000    0     1.008    1.374491    1.301342   -1.365889
  10 S    16.0000    0    32.060   -2.828370    1.416480    1.932462
  11 O     8.0000    0    15.999   -4.494030   -0.581813    2.781111
  12 O     8.0000    0    15.999   -0.228623    1.636515    2.775037
  13 N     7.0000    0    14.007   -4.216083    4.112263    2.722046
  14 H     1.0000    0     1.008   -6.068082    4.188479    2.216367
  15 H     1.0000    0     1.008   -3.210897    5.658522    2.183901
  16 N     7.0000    0    14.007   -1.978005    0.887104   -9.336191
  17 C     6.0000    0    12.011    0.416215    0.683266  -10.661640
  18 N     7.0000    0    14.007    2.278660    2.173160   -9.269907
  19 O     8.0000    0    15.999    4.766036    2.423725   -5.175527
  20 O     8.0000    0    15.999    3.605036   -1.863799   -6.883159
  21 H     1.0000    0     1.008    0.200879    1.522626  -12.532978
  22 H     1.0000    0     1.008    3.899271    2.503951  -10.260230
  23 H     1.0000    0     1.008   -3.577013    0.670647  -10.354002
  24 H     1.0000    0     1.008    1.004002   -1.301092  -10.848610

--------------------------------
INTERNAL COORDINATES (ANGSTROEM)
--------------------------------
 C      0   0   0     0.000000000000     0.00000000     0.00000000
 C      1   0   0     1.402570589132     0.00000000     0.00000000
 Cl     2   1   0     1.738404045846   121.32380443     0.00000000
 C      2   1   3     1.382476860666   121.41654027   178.50887034
 H      4   2   1     1.085633497939   119.38244922   181.34679348
 C      4   2   1     1.407953097035   120.65604013     0.92673522
 C      6   4   2     1.409975855910   117.23132808   359.57685334
 S      7   6   4     1.768717639546   119.27648424   177.97359430
 C      7   6   4     1.386181775750   121.88163057   359.40902996
 H      9   7   6     1.087515460241   120.35324837   181.26434482
 S      1   2   3     1.791344430740   123.81268648     2.94941453
 O     11   1   2     1.448032667914   108.08338437    50.40868324
 O     11   1   2     1.450855915212   105.49676288   183.29561753
 N     11   1   2     1.657975224797   107.62042811   295.99105848
 H     14  11   1     1.016711606674   113.24998351    67.32574723
 H     14  11   1     1.016642542422   112.96525742   296.53176995
 N      6   4   2     1.365825155996   120.25586550   182.18338111
 C     17   6   4     1.452169824687   123.60143540   182.37153758
 N     18  17   6     1.461277367354   107.75405616   322.54976781
 O      8   7   6     1.449598258092   111.08561556   142.18852633
 O      8   7   6     1.456899739910   108.96792571   276.67702896
 H     18  17   6     1.091286358466   108.47887846   205.92374845
 H     19  18  17     1.020165319518   113.61878920   194.01325715
 H     17   6   4     1.009552910037   117.82817637   351.55317069
 H     18  17   6     1.099635976530   111.17240044    85.26114047

---------------------------
INTERNAL COORDINATES (A.U.)
---------------------------
 C      0   0   0     0.000000000000     0.00000000     0.00000000
 C      1   0   0     2.650474296952     0.00000000     0.00000000
 Cl     2   1   0     3.285107556749   121.32380443     0.00000000
 C      2   1   3     2.612502653142   121.41654027   178.50887034
 H      4   2   1     2.051549992915   119.38244922   181.34679348
 C      4   2   1     2.660645762802   120.65604013     0.92673522
 C      6   4   2     2.664468223111   117.23132808   359.57685334
 S      7   6   4     3.342391946978   119.27648424   177.97359430
 C      7   6   4     2.619503928001   121.88163057   359.40902996
 H      9   7   6     2.055106386261   120.35324837   181.26434482
 S      1   2   3     3.385150385624   123.81268648     2.94941453
 O     11   1   2     2.736385175329   108.08338437    50.40868324
 O     11   1   2     2.741720339531   105.49676288   183.29561753
 N     11   1   2     3.133119111693   107.62042811   295.99105848
 H     14  11   1     1.921306493793   113.24998351    67.32574723
 H     14  11   1     1.921175981270   112.96525742   296.53176995
 N      6   4   2     2.581035491652   120.25586550   182.18338111
 C     17   6   4     2.744203268604   123.60143540   182.37153758
 N     18  17   6     2.761414029996   107.75405616   322.54976781
 O      8   7   6     2.739343712004   111.08561556   142.18852633
 O      8   7   6     2.753141513011   108.96792571   276.67702896
 H     18  17   6     2.062232351185   108.47887846   205.92374845
 H     19  18  17     1.927833065213   113.61878920   194.01325715
 H     17   6   4     1.907778517674   117.82817637   351.55317069
 H     18  17   6     2.078010842648   111.17240044    85.26114047

---------------------
BASIS SET INFORMATION
---------------------
There are 6 groups of distinct atoms

 Group   1 Type C   : 19s6p3d2f contracted to 5s4p3d2f pattern {88111/3111/111/11}
 Group   2 Type Cl  : 42s17p3d2f contracted to 6s5p3d2f pattern {131313111/77111/111/11}
 Group   3 Type H   : 6s3p2d contracted to 4s3p2d pattern {3111/111/11}
 Group   4 Type S   : 42s17p3d2f contracted to 6s5p3d2f pattern {131313111/77111/111/11}
 Group   5 Type O   : 19s6p3d2f contracted to 5s4p3d2f pattern {88111/3111/111/11}
 Group   6 Type N   : 19s6p3d2f contracted to 5s4p3d2f pattern {88111/3111/111/11}

Atom   0C    basis set group =>   1
Atom   1C    basis set group =>   1
Atom   2Cl   basis set group =>   2
Atom   3C    basis set group =>   1
Atom   4H    basis set group =>   3
Atom   5C    basis set group =>   1
Atom   6C    basis set group =>   1
Atom   7S    basis set group =>   4
Atom   8C    basis set group =>   1
Atom   9H    basis set group =>   3
Atom  10S    basis set group =>   4
Atom  11O    basis set group =>   5
Atom  12O    basis set group =>   5
Atom  13N    basis set group =>   6
Atom  14H    basis set group =>   3
Atom  15H    basis set group =>   3
Atom  16N    basis set group =>   6
Atom  17C    basis set group =>   1
Atom  18N    basis set group =>   6
Atom  19O    basis set group =>   5
Atom  20O    basis set group =>   5
Atom  21H    basis set group =>   3
Atom  22H    basis set group =>   3
Atom  23H    basis set group =>   3
Atom  24H    basis set group =>   3
---------------------------------
AUXILIARY/J BASIS SET INFORMATION
---------------------------------
There are 6 groups of distinct atoms

 Group   1 Type C   : 12s5p4d2f1g contracted to 6s4p3d1f1g pattern {711111/2111/211/2/1}
 Group   2 Type Cl  : 14s5p5d2f1g contracted to 8s4p3d1f1g pattern {71111111/2111/311/2/1}
 Group   3 Type H   : 5s2p1d contracted to 3s1p1d pattern {311/2/1}
 Group   4 Type S   : 14s5p5d2f1g contracted to 8s4p3d1f1g pattern {71111111/2111/311/2/1}
 Group   5 Type O   : 12s5p4d2f1g contracted to 6s4p3d1f1g pattern {711111/2111/211/2/1}
 Group   6 Type N   : 12s5p4d2f1g contracted to 6s4p3d1f1g pattern {711111/2111/211/2/1}

Atom   0C    basis set group =>   1
Atom   1C    basis set group =>   1
Atom   2Cl   basis set group =>   2
Atom   3C    basis set group =>   1
Atom   4H    basis set group =>   3
Atom   5C    basis set group =>   1
Atom   6C    basis set group =>   1
Atom   7S    basis set group =>   4
Atom   8C    basis set group =>   1
Atom   9H    basis set group =>   3
Atom  10S    basis set group =>   4
Atom  11O    basis set group =>   5
Atom  12O    basis set group =>   5
Atom  13N    basis set group =>   6
Atom  14H    basis set group =>   3
Atom  15H    basis set group =>   3
Atom  16N    basis set group =>   6
Atom  17C    basis set group =>   1
Atom  18N    basis set group =>   6
Atom  19O    basis set group =>   5
Atom  20O    basis set group =>   5
Atom  21H    basis set group =>   3
Atom  22H    basis set group =>   3
Atom  23H    basis set group =>   3
Atom  24H    basis set group =>   3
---------------------------------
AUXILIARY/C BASIS SET INFORMATION
---------------------------------
There are 6 groups of distinct atoms

 Group   1 Type C   : 9s7p6d4f2g contracted to 9s7p6d4f2g pattern {111111111/1111111/111111/1111/11}
 Group   2 Type Cl  : 11s9p8d6f3g contracted to 11s9p8d6f3g pattern {11111111111/111111111/11111111/111111/111}
 Group   3 Type H   : 5s4p3d2f contracted to 5s4p3d2f pattern {11111/1111/111/11}
 Group   4 Type S   : 11s9p8d6f3g contracted to 11s9p8d6f3g pattern {11111111111/111111111/11111111/111111/111}
 Group   5 Type O   : 9s7p6d4f2g contracted to 9s7p6d4f2g pattern {111111111/1111111/111111/1111/11}
 Group   6 Type N   : 9s7p6d4f2g contracted to 9s7p6d4f2g pattern {111111111/1111111/111111/1111/11}

Atom   0C    basis set group =>   1
Atom   1C    basis set group =>   1
Atom   2Cl   basis set group =>   2
Atom   3C    basis set group =>   1
Atom   4H    basis set group =>   3
Atom   5C    basis set group =>   1
Atom   6C    basis set group =>   1
Atom   7S    basis set group =>   4
Atom   8C    basis set group =>   1
Atom   9H    basis set group =>   3
Atom  10S    basis set group =>   4
Atom  11O    basis set group =>   5
Atom  12O    basis set group =>   5
Atom  13N    basis set group =>   6
Atom  14H    basis set group =>   3
Atom  15H    basis set group =>   3
Atom  16N    basis set group =>   6
Atom  17C    basis set group =>   1
Atom  18N    basis set group =>   6
Atom  19O    basis set group =>   5
Atom  20O    basis set group =>   5
Atom  21H    basis set group =>   3
Atom  22H    basis set group =>   3
Atom  23H    basis set group =>   3
Atom  24H    basis set group =>   3


           ************************************************************
           *        Program running with 8 parallel MPI-processes     *
           *              working on a common directory               *
           ************************************************************
------------------------------------------------------------------------------
                           ORCA GTO INTEGRAL CALCULATION
                           -- RI-GTO INTEGRALS CHOSEN --
------------------------------------------------------------------------------
------------------------------------------------------------------------------
                   ___                                                        
                  /   \      - P O W E R E D   B Y -                         
                 /     \                                                     
                 |  |  |   _    _      __       _____    __    __             
                 |  |  |  | |  | |    /  \     |  _  \  |  |  /  |          
                  \  \/   | |  | |   /    \    | | | |  |  | /  /          
                 / \  \   | |__| |  /  /\  \   | |_| |  |  |/  /          
                |  |  |   |  __  | /  /__\  \  |    /   |      \           
                |  |  |   | |  | | |   __   |  |    \   |  |\   \          
                \     /   | |  | | |  |  |  |  | |\  \  |  | \   \       
                 \___/    |_|  |_| |__|  |__|  |_| \__\ |__|  \__/        
                                                                              
                      - O R C A' S   B I G   F R I E N D -                    
                                      &                                       
                       - I N T E G R A L  F E E D E R -                       
                                                                              
 v1 FN, 2020, v2 2021                                                         
------------------------------------------------------------------------------


Reading SHARK input file HA.32.avtz.SHARKINP.tmp ... ok
----------------------
SHARK INTEGRAL PACKAGE
----------------------

Number of atoms                             ...     25
Number of basis functions                   ...   1137
Number of shells                            ...    445
Maximum angular momentum                    ...      3
Integral batch strategy                     ... SHARK/LIBINT Hybrid
RI-J (if used) integral strategy            ... SPLIT-RIJ (Revised 2003 algorithm where possible)
Printlevel                                  ...      1
Contraction scheme used                     ... PARTIAL GENERAL contraction
Coulomb Range Separation                    ... NOT USED
Exchange Range Separation                   ... NOT USED
Finite Nucleus Model                        ... NOT USED
Auxiliary Coulomb fitting basis             ... AVAILABLE
   # of basis functions in Aux-J            ...    927
   # of shells in Aux-J                     ...    301
   Maximum angular momentum in Aux-J        ...      4
Auxiliary J/K fitting basis                 ... NOT available
Auxiliary Correlation fitting basis         ... AVAILABLE
   # of basis functions in Aux-C            ...   2293
   # of shells in Aux-C                     ...    615
   Maximum angular momentum in Aux-C        ...      4
Auxiliary 'external' fitting basis          ... NOT available
Integral threshold                          ...     2.500000e-11
Primitive cut-off                           ...     2.500000e-12
Primitive pair pre-selection threshold      ...     2.500000e-12

Calculating pre-screening integrals         ... done (  0.1 sec) Dimension = 445
Calculating pre-screening integrals (ORCA)  ... done (  0.3 sec) Dimension = 316
Organizing shell pair data                  ... done (  0.7 sec)
Shell pair information
Total number of shell pairs                 ...     99235
Shell pairs after pre-screening             ...     67906
Total number of primitive shell pairs       ...    119871
Primitive shell pairs kept                  ...     76573
          la=0 lb=0:  14513 shell pairs
          la=1 lb=0:  17888 shell pairs
          la=1 lb=1:   4971 shell pairs
          la=2 lb=0:  11291 shell pairs
          la=2 lb=1:   6102 shell pairs
          la=2 lb=2:   1944 shell pairs
          la=3 lb=0:   5667 shell pairs
          la=3 lb=1:   3070 shell pairs
          la=3 lb=2:   1950 shell pairs
          la=3 lb=3:    510 shell pairs

Calculating one electron integrals          ... done (  0.1 sec)
Calculating RI/J V-Matrix + Cholesky decomp.... done (  0.1 sec)
Calculating RI/C V-Matrix + Cholesky decomp.... done (  0.3 sec)
Calculating Nuclear repulsion               ... done (  0.0 sec) ENN=   1743.944441336137 Eh

SHARK setup successfully completed in   2.3 seconds

Maximum memory used throughout the entire GTOINT-calculation: 99.9 MB


           ************************************************************
           *        Program running with 8 parallel MPI-processes     *
           *              working on a common directory               *
           ************************************************************
-------------------------------------------------------------------------------
                                 ORCA SCF
-------------------------------------------------------------------------------

------------
SCF SETTINGS
------------
Hamiltonian:
 Density Functional     Method          .... DFT(GTOs)
 Exchange Functional    Exchange        .... PBE
   PBE kappa parameter   XKappa         ....  0.804000
   PBE mue parameter    XMuePBE         ....  0.219520
 Correlation Functional Correlation     .... P86
 LDA part of GGA corr.  LDAOpt          .... VWN-5
 Gradients option       PostSCFGGA      .... off
 Hybrid DFT is turned on
   Fraction HF Exchange ScalHFX         ....  0.700000
   Scaling of DF-GGA-X  ScalDFX         ....  0.300000
   Scaling of DF-GGA-C  ScalDFC         ....  0.430000
   Scaling of DF-LDA-C  ScalLDAC        ....  0.430000
   Perturbative correction              ....  1.000000
   Density functional embedding theory  .... OFF
   NL short-range parameter             .... 14.200000
 RI-approximation to the Coulomb term is turned on
   Number of AuxJ basis functions       .... 927
   RIJ-COSX (HFX calculated with COS-X)).... on


General Settings:
 Integral files         IntName         .... HA.32.avtz
 Hartree-Fock type      HFTyp           .... RHF
 Total Charge           Charge          ....    0
 Multiplicity           Mult            ....    1
 Number of Electrons    NEL             ....  152
 Basis Dimension        Dim             ....  978
 Nuclear Repulsion      ENuc            ....   1743.9444413361 Eh

Convergence Acceleration:
 DIIS                   CNVDIIS         .... on
   Start iteration      DIISMaxIt       ....    12
   Startup error        DIISStart       ....  0.200000
   # of expansion vecs  DIISMaxEq       ....     5
   Bias factor          DIISBfac        ....   1.050
   Max. coefficient     DIISMaxC        ....  10.000
 Trust-Rad. Augm. Hess. CNVTRAH         .... auto
   Auto Start mean grad. ratio tolernc. ....  1.125000
   Auto Start start iteration           ....    20
   Auto Start num. interpolation iter.  ....    10
   Max. Number of Micro iterations      ....    16
   Max. Number of Macro iterations      .... Maxiter - #DIIS iter
   Number of Davidson start vectors     ....     2
   Converg. threshold I  (grad. norm)   ....   1.000e-05
   Converg. threshold II (energy diff.) ....   1.000e-08
   Grad. Scal. Fac. for Micro threshold ....   0.100
   Minimum threshold for Micro iter.    ....   0.010
   NR start threshold (gradient norm)   ....   0.001
   Initial trust radius                 ....   0.400
   Minimum AH scaling param. (alpha)    ....   1.000
   Maximum AH scaling param. (alpha)    .... 1000.000
   Orbital update algorithm             .... Taylor
   White noise on init. David. guess    .... on
   Maximum white noise                  ....   0.010
   Quad. conv. algorithm                .... NR
 SOSCF                  CNVSOSCF        .... on
   Start iteration      SOSCFMaxIt      ....   150
   Startup grad/error   SOSCFStart      ....  0.003300
 Level Shifting         CNVShift        .... on
   Level shift para.    LevelShift      ....    0.2500
   Turn off err/grad.   ShiftErr        ....    0.0010
 Zerner damping         CNVZerner       .... off
 Static damping         CNVDamp         .... on
   Fraction old density DampFac         ....    0.7000
   Max. Damping (<1)    DampMax         ....    0.9800
   Min. Damping (>=0)   DampMin         ....    0.0000
   Turn off err/grad.   DampErr         ....    0.1000
 Fernandez-Rico         CNVRico         .... off

SCF Procedure:
 Maximum # iterations   MaxIter         ....   125
 SCF integral mode      SCFMode         .... Direct
   Integral package                     .... SHARK and LIBINT hybrid scheme
 Reset frequency        DirectResetFreq ....    20
 Integral Threshold     Thresh          ....  2.500e-11 Eh
 Primitive CutOff       TCut            ....  2.500e-12 Eh

Convergence Tolerance:
 Convergence Check Mode ConvCheckMode   .... Total+1el-Energy
 Convergence forced     ConvForced      .... 0
 Energy Change          TolE            ....  1.000e-08 Eh
 1-El. energy change                    ....  1.000e-05 Eh
 Orbital Gradient       TolG            ....  1.000e-05
 Orbital Rotation angle TolX            ....  1.000e-05
 DIIS Error             TolErr          ....  5.000e-07


Diagonalization of the overlap matrix:
Smallest eigenvalue                        ... 1.712e-07
Time for diagonalization                   ...    0.181 sec
Threshold for overlap eigenvalues          ... 1.000e-08
Number of eigenvalues below threshold      ... 0
Time for construction of square roots      ...    0.093 sec
Total time needed                          ...    0.280 sec

Time for model grid setup =    0.252 sec

------------------------------
INITIAL GUESS: MODEL POTENTIAL
------------------------------
Loading Hartree-Fock densities                     ... done
Calculating cut-offs                               ... done
Initializing the effective Hamiltonian             ... done
Setting up the integral package (SHARK)            ... done
Starting the Coulomb interaction                   ... done (   0.8 sec)
Reading the grid                                   ... done
Mapping shells                                     ... done
Starting the XC term evaluation                    ... done (   0.7 sec)
  promolecular density results
     # of electrons  =    151.994356892
     EX              =   -167.883258275
     EC              =     -0.056441517
     EX+EC           =   -167.939699792
Transforming the Hamiltonian                       ... done (   0.1 sec)
Diagonalizing the Hamiltonian                      ... done (   0.2 sec)
Back transforming the eigenvectors                 ... done (   0.0 sec)
Now organizing SCF variables                       ... done
                      ------------------
                      INITIAL GUESS DONE (   2.1 sec)
                      ------------------
-------------------
DFT GRID GENERATION
-------------------

General Integration Accuracy     IntAcc      ... 4.388
Radial Grid Type                 RadialGrid  ... OptM3 with GC (2021)
Angular Grid (max. ang.)         AngularGrid ... 4 (Lebedev-302)
Angular grid pruning method      GridPruning ... 4 (adaptive)
Weight generation scheme         WeightScheme... Becke
Basis function cutoff            BFCut       ... 1.0000e-11
Integration weight cutoff        WCut        ... 1.0000e-14
Angular grids for H and He will be reduced by one unit
Partially contracted basis set               ... off
Rotationally invariant grid construction     ... off

Total number of grid points                  ...   137275
Total number of batches                      ...     2160
Average number of points per batch           ...       63
Average number of grid points per atom       ...     5491
Time for grid setup =    0.870 sec

--------------------
COSX GRID GENERATION
--------------------

GRIDX 1
-------
General Integration Accuracy     IntAcc      ... 3.816
Radial Grid Type                 RadialGrid  ... OptM3 with GC (2021)
Angular Grid (max. ang.)         AngularGrid ... 1 (Lebedev-50)
Angular grid pruning method      GridPruning ... 4 (adaptive)
Weight generation scheme         WeightScheme... Becke
Basis function cutoff            BFCut       ... 1.0000e-11
Integration weight cutoff        WCut        ... 1.0000e-14
Angular grids for H and He will be reduced by one unit
Partially contracted basis set               ... on
Rotationally invariant grid construction     ... off

Total number of grid points                  ...    17001
Total number of batches                      ...      279
Average number of points per batch           ...       60
Average number of grid points per atom       ...      680
UseSFitting                                  ... on

GRIDX 2
-------
General Integration Accuracy     IntAcc      ... 4.020
Radial Grid Type                 RadialGrid  ... OptM3 with GC (2021)
Angular Grid (max. ang.)         AngularGrid ... 2 (Lebedev-110)
Angular grid pruning method      GridPruning ... 4 (adaptive)
Weight generation scheme         WeightScheme... Becke
Basis function cutoff            BFCut       ... 1.0000e-11
Integration weight cutoff        WCut        ... 1.0000e-14
Angular grids for H and He will be reduced by one unit
Partially contracted basis set               ... on
Rotationally invariant grid construction     ... off

Total number of grid points                  ...    41838
Total number of batches                      ...      668
Average number of points per batch           ...       62
Average number of grid points per atom       ...     1674
UseSFitting                                  ... on

GRIDX 3
-------
General Integration Accuracy     IntAcc      ... 4.338
Radial Grid Type                 RadialGrid  ... OptM3 with GC (2021)
Angular Grid (max. ang.)         AngularGrid ... 3 (Lebedev-194)
Angular grid pruning method      GridPruning ... 4 (adaptive)
Weight generation scheme         WeightScheme... Becke
Basis function cutoff            BFCut       ... 1.0000e-11
Integration weight cutoff        WCut        ... 1.0000e-14
Angular grids for H and He will be reduced by one unit
Partially contracted basis set               ... on
Rotationally invariant grid construction     ... off

Total number of grid points                  ...    93810
Total number of batches                      ...     1480
Average number of points per batch           ...       63
Average number of grid points per atom       ...     3752
UseSFitting                                  ... on

Time for X-Grid setup             =    2.067 sec

 re-compute Schwartz prescreening matrix in partically contracted basis (1) ...done (   0.111 sec)
--------------
SCF ITERATIONS
--------------
ITER       Energy         Delta-E        Max-DP      RMS-DP      [F,P]     Damp
               ***  Starting incremental Fock matrix formation  ***
  0  -1989.1012606344   0.000000000000 0.32202489  0.00197838  0.2923123 0.7000
  1  -1989.3613396811  -0.260079046670 0.21782079  0.00148740  0.1477540 0.7000
                               ***Turning on DIIS***
  2  -1989.4837817717  -0.122442090667 0.48133725  0.00329814  0.0691197 0.0000
  3  -1989.6937654171  -0.209983645402 0.18461027  0.00088794  0.0635535 0.0000
  4  -1989.7239418566  -0.030176439495 0.03347641  0.00027055  0.0084286 0.0000
  5  -1989.7248830184  -0.000941161785 0.02212899  0.00013513  0.0043078 0.0000
                      *** Initiating the SOSCF procedure ***
                           *** Shutting down DIIS ***
                      *** Re-Reading the Fockian *** 
                      *** Removing any level shift *** 
ITER      Energy       Delta-E        Grad      Rot      Max-DP    RMS-DP
  6  -1989.72513198  -0.0002489626  0.000646  0.000646  0.050693  0.000319
               *** Restarting incremental Fock matrix formation ***
  7  -1989.72518554  -0.0000535555  0.000287  0.000619  0.237769  0.001213
  8  -1989.72519642  -0.0000108854  0.000100  0.000402  0.190990  0.000830
  9  -1989.72519778  -0.0000013574  0.000065  0.000052  0.058838  0.000311
 10  -1989.72519861  -0.0000008293  0.000019  0.000058  0.127264  0.000542
 11  -1989.72519864  -0.0000000311  0.000011  0.000027  0.041014  0.000184
 12  -1989.72519866  -0.0000000209  0.000005  0.000020  0.096496  0.000458
                  ***Gradient check signals convergence***
              ***Rediagonalizing the Fockian in SOSCF/NRSCF***

               *****************************************************
               *                     SUCCESS                       *
               *           SCF CONVERGED AFTER  13 CYCLES          *
               *****************************************************

Old exchange energy                            =   -118.912863473 Eh
New exchange energy                            =   -118.912754843 Eh
Exchange energy change after final integration =      0.000108630 Eh
Total energy after final integration           =  -1989.725090062 Eh
Final COS-X integration done in                =    45.145 sec

----------------
TOTAL SCF ENERGY
----------------

Total Energy       :        -1989.72509006 Eh          -54143.17229 eV

Components:
Nuclear Repulsion  :         1743.94444134 Eh           47455.14082 eV
Electronic Energy  :        -3733.66953140 Eh         -101598.31311 eV
One Electron Energy:        -6206.49406888 Eh         -168887.28968 eV
Two Electron Energy:         2472.82453748 Eh           67288.97657 eV
Max COSX asymmetry :            0.00002999 Eh               0.00082 eV

Virial components:
Potential Energy   :        -3974.85067442 Eh         -108161.18566 eV
Kinetic Energy     :         1985.12558436 Eh           54018.01337 eV
Virial Ratio       :            2.00231698


DFT components:
N(Alpha)           :       76.000160063388 electrons
N(Beta)            :       76.000160063388 electrons
N(Total)           :      152.000320126776 electrons
E(X)               :      -50.766122822501 Eh       
E(C)               :       -2.640129318034 Eh       
E(XC)              :      -53.406252140535 Eh       
DFET-embed. en.    :        0.000000000000 Eh       

---------------
SCF CONVERGENCE
---------------

  Last Energy change         ...   -3.1911e-08  Tolerance :   1.0000e-08
  Last MAX-Density change    ...    4.4409e-15  Tolerance :   1.0000e-07
  Last RMS-Density change    ...    2.7960e-17  Tolerance :   5.0000e-09
  Last Orbital Gradient      ...    2.1209e-06  Tolerance :   1.0000e-05
  Last Orbital Rotation      ...    5.8237e-06  Tolerance :   1.0000e-05

             **** THE GBW FILE WAS UPDATED (HA.32.avtz.gbw) ****
             **** DENSITY HA.32.avtz.scfp WAS UPDATED ****
             **** ENERGY FILE WAS UPDATED (HA.32.avtz.en.tmp) ****
             **** THE GBW FILE WAS UPDATED (HA.32.avtz.gbw) ****
             **** DENSITY HA.32.avtz.scfp WAS UPDATED ****
----------------
ORBITAL ENERGIES
----------------

  NO   OCC          E(Eh)            E(eV) 
   0   2.0000    -103.646411     -2820.3622 
   1   2.0000     -91.055059     -2477.7341 
   2   2.0000     -91.048343     -2477.5514 
   3   2.0000     -20.034088      -545.1552 
   4   2.0000     -20.029896      -545.0412 
   5   2.0000     -20.020200      -544.7773 
   6   2.0000     -20.018398      -544.7283 
   7   2.0000     -15.163235      -412.6126 
   8   2.0000     -15.159218      -412.5033 
   9   2.0000     -15.140849      -412.0034 
  10   2.0000     -10.956901      -298.1524 
  11   2.0000     -10.952513      -298.0330 
  12   2.0000     -10.950050      -297.9660 
  13   2.0000     -10.899028      -296.5776 
  14   2.0000     -10.897375      -296.5326 
  15   2.0000     -10.896013      -296.4956 
  16   2.0000     -10.883393      -296.1522 
  17   2.0000     -10.194294      -277.4009 
  18   2.0000      -8.798950      -239.4316 
  19   2.0000      -8.790645      -239.2056 
  20   2.0000      -7.767490      -211.3641 
  21   2.0000      -7.762912      -211.2396 
  22   2.0000      -7.762620      -211.2316 
  23   2.0000      -6.585537      -179.2016 
  24   2.0000      -6.583177      -179.1374 
  25   2.0000      -6.581966      -179.1044 
  26   2.0000      -6.576857      -178.9654 
  27   2.0000      -6.575658      -178.9328 
  28   2.0000      -6.573875      -178.8842 
  29   2.0000      -1.354308       -36.8526 
  30   2.0000      -1.344139       -36.5759 
  31   2.0000      -1.235887       -33.6302 
  32   2.0000      -1.228358       -33.4253 
  33   2.0000      -1.216784       -33.1104 
  34   2.0000      -1.140095       -31.0236 
  35   2.0000      -1.120419       -30.4881 
  36   2.0000      -1.111359       -30.2416 
  37   2.0000      -1.060205       -28.8496 
  38   2.0000      -0.982988       -26.7485 
  39   2.0000      -0.965715       -26.2784 
  40   2.0000      -0.887150       -24.1406 
  41   2.0000      -0.843382       -22.9496 
  42   2.0000      -0.828158       -22.5353 
  43   2.0000      -0.791296       -21.5323 
  44   2.0000      -0.741921       -20.1887 
  45   2.0000      -0.710825       -19.3425 
  46   2.0000      -0.699213       -19.0266 
  47   2.0000      -0.672643       -18.3035 
  48   2.0000      -0.664360       -18.0781 
  49   2.0000      -0.650066       -17.6892 
  50   2.0000      -0.645537       -17.5660 
  51   2.0000      -0.623158       -16.9570 
  52   2.0000      -0.615637       -16.7523 
  53   2.0000      -0.605486       -16.4761 
  54   2.0000      -0.596980       -16.2446 
  55   2.0000      -0.589979       -16.0541 
  56   2.0000      -0.573704       -15.6113 
  57   2.0000      -0.566297       -15.4097 
  58   2.0000      -0.555895       -15.1267 
  59   2.0000      -0.541531       -14.7358 
  60   2.0000      -0.516584       -14.0570 
  61   2.0000      -0.488717       -13.2987 
  62   2.0000      -0.477131       -12.9834 
  63   2.0000      -0.463959       -12.6250 
  64   2.0000      -0.457424       -12.4471 
  65   2.0000      -0.450844       -12.2681 
  66   2.0000      -0.446446       -12.1484 
  67   2.0000      -0.443100       -12.0574 
  68   2.0000      -0.437649       -11.9090 
  69   2.0000      -0.431321       -11.7368 
  70   2.0000      -0.421544       -11.4708 
  71   2.0000      -0.417921       -11.3722 
  72   2.0000      -0.408455       -11.1146 
  73   2.0000      -0.403309       -10.9746 
  74   2.0000      -0.354146        -9.6368 
  75   2.0000      -0.314704        -8.5635 
  76   0.0000      -0.003312        -0.0901 
  77   0.0000       0.006085         0.1656 
  78   0.0000       0.012598         0.3428 
  79   0.0000       0.016585         0.4513 
  80   0.0000       0.019445         0.5291 
  81   0.0000       0.030336         0.8255 
  82   0.0000       0.031768         0.8644 
  83   0.0000       0.037045         1.0080 
  84   0.0000       0.050245         1.3672 
  85   0.0000       0.052824         1.4374 
  86   0.0000       0.059100         1.6082 
  87   0.0000       0.063589         1.7303 
  88   0.0000       0.070026         1.9055 
  89   0.0000       0.074865         2.0372 
  90   0.0000       0.078387         2.1330 
  91   0.0000       0.081288         2.2120 
  92   0.0000       0.084567         2.3012 
  93   0.0000       0.087248         2.3741 
  94   0.0000       0.090050         2.4504 
  95   0.0000       0.094822         2.5802 
  96   0.0000       0.097519         2.6536 
  97   0.0000       0.098991         2.6937 
  98   0.0000       0.101774         2.7694 
  99   0.0000       0.108216         2.9447 
 100   0.0000       0.111924         3.0456 
 101   0.0000       0.116304         3.1648 
 102   0.0000       0.117177         3.1885 
 103   0.0000       0.119498         3.2517 
 104   0.0000       0.122535         3.3344 
 105   0.0000       0.129703         3.5294 
 106   0.0000       0.132401         3.6028 
 107   0.0000       0.133959         3.6452 
 108   0.0000       0.137211         3.7337 
 109   0.0000       0.140572         3.8252 
 110   0.0000       0.145133         3.9493 
 111   0.0000       0.147012         4.0004 
 112   0.0000       0.150473         4.0946 
 113   0.0000       0.154262         4.1977 
 114   0.0000       0.158189         4.3046 
 115   0.0000       0.160817         4.3760 
 116   0.0000       0.165705         4.5091 
 117   0.0000       0.167799         4.5660 
 118   0.0000       0.168673         4.5898 
 119   0.0000       0.172388         4.6909 
 120   0.0000       0.178764         4.8644 
 121   0.0000       0.181749         4.9456 
 122   0.0000       0.183016         4.9801 
 123   0.0000       0.185856         5.0574 
 124   0.0000       0.187159         5.0929 
 125   0.0000       0.189263         5.1501 
 126   0.0000       0.195819         5.3285 
 127   0.0000       0.197249         5.3674 
 128   0.0000       0.204235         5.5575 
 129   0.0000       0.206298         5.6136 
 130   0.0000       0.206748         5.6259 
 131   0.0000       0.211693         5.7605 
 132   0.0000       0.217025         5.9055 
 133   0.0000       0.220422         5.9980 
 134   0.0000       0.224157         6.0996 
 135   0.0000       0.227006         6.1771 
 136   0.0000       0.228032         6.2051 
 137   0.0000       0.232360         6.3228 
 138   0.0000       0.233235         6.3466 
 139   0.0000       0.236888         6.4461 
 140   0.0000       0.239955         6.5295 
 141   0.0000       0.241746         6.5783 
 142   0.0000       0.243607         6.6289 
 143   0.0000       0.245620         6.6836 
 144   0.0000       0.247748         6.7416 
 145   0.0000       0.253491         6.8978 
 146   0.0000       0.256864         6.9896 
 147   0.0000       0.258097         7.0232 
 148   0.0000       0.263973         7.1831 
 149   0.0000       0.266602         7.2546 
 150   0.0000       0.272719         7.4211 
 151   0.0000       0.273638         7.4461 
 152   0.0000       0.277311         7.5460 
 153   0.0000       0.278625         7.5818 
 154   0.0000       0.282478         7.6866 
 155   0.0000       0.284797         7.7497 
 156   0.0000       0.291685         7.9371 
 157   0.0000       0.292156         7.9500 
 158   0.0000       0.295225         8.0335 
 159   0.0000       0.302694         8.2367 
 160   0.0000       0.303868         8.2687 
 161   0.0000       0.309415         8.4196 
 162   0.0000       0.311209         8.4684 
 163   0.0000       0.313801         8.5389 
 164   0.0000       0.317240         8.6325 
 165   0.0000       0.318752         8.6737 
 166   0.0000       0.322479         8.7751 
 167   0.0000       0.327231         8.9044 
 168   0.0000       0.329802         8.9744 
 169   0.0000       0.334984         9.1154 
 170   0.0000       0.336309         9.1514 
 171   0.0000       0.339528         9.2390 
 172   0.0000       0.345335         9.3970 
 173   0.0000       0.351144         9.5551 
 174   0.0000       0.352075         9.5805 
 175   0.0000       0.356710         9.7066 
 176   0.0000       0.358189         9.7468 
 177   0.0000       0.362350         9.8600 
 178   0.0000       0.366512         9.9733 
 179   0.0000       0.371127        10.0989 
 180   0.0000       0.373459        10.1623 
 181   0.0000       0.375974        10.2308 
 182   0.0000       0.378996        10.3130 
 183   0.0000       0.382974        10.4212 
 184   0.0000       0.388558        10.5732 
 185   0.0000       0.397398        10.8138 
 186   0.0000       0.399406        10.8684 
 187   0.0000       0.401383        10.9222 
 188   0.0000       0.406586        11.0638 
 189   0.0000       0.407508        11.0889 
 190   0.0000       0.410490        11.1700 
 191   0.0000       0.417502        11.3608 
 192   0.0000       0.419081        11.4038 
 193   0.0000       0.419706        11.4208 
 194   0.0000       0.423076        11.5125 
 195   0.0000       0.428933        11.6719 
 196   0.0000       0.431342        11.7374 
 197   0.0000       0.435054        11.8384 
 198   0.0000       0.439661        11.9638 
 199   0.0000       0.441184        12.0052 
 200   0.0000       0.444519        12.0960 
 201   0.0000       0.447015        12.1639 
 202   0.0000       0.449403        12.2289 
 203   0.0000       0.450764        12.2659 
 204   0.0000       0.454509        12.3678 
 205   0.0000       0.459290        12.4979 
 206   0.0000       0.465651        12.6710 
 207   0.0000       0.466221        12.6865 
 208   0.0000       0.469029        12.7629 
 209   0.0000       0.476040        12.9537 
 210   0.0000       0.478755        13.0276 
 211   0.0000       0.482186        13.1209 
 212   0.0000       0.483286        13.1509 
 213   0.0000       0.487956        13.2780 
 214   0.0000       0.492951        13.4139 
 215   0.0000       0.496419        13.5082 
 216   0.0000       0.498785        13.5726 
 217   0.0000       0.500962        13.6319 
 218   0.0000       0.504441        13.7265 
 219   0.0000       0.505319        13.7504 
 220   0.0000       0.512416        13.9436 
 221   0.0000       0.514977        14.0132 
 222   0.0000       0.523238        14.2380 
 223   0.0000       0.526814        14.3353 
 224   0.0000       0.532271        14.4838 
 225   0.0000       0.533517        14.5177 
 226   0.0000       0.540512        14.7081 
 227   0.0000       0.544359        14.8128 
 228   0.0000       0.548407        14.9229 
 229   0.0000       0.552269        15.0280 
 230   0.0000       0.558274        15.1914 
 231   0.0000       0.565767        15.3953 
 232   0.0000       0.567966        15.4551 
 233   0.0000       0.574244        15.6260 
 234   0.0000       0.580457        15.7950 
 235   0.0000       0.584766        15.9123 
 236   0.0000       0.587905        15.9977 
 237   0.0000       0.590848        16.0778 
 238   0.0000       0.596730        16.2378 
 239   0.0000       0.607648        16.5349 
 240   0.0000       0.608631        16.5617 
 241   0.0000       0.612665        16.6715 
 242   0.0000       0.620419        16.8824 
 243   0.0000       0.621535        16.9128 
 244   0.0000       0.628215        17.0946 
 245   0.0000       0.631141        17.1742 
 246   0.0000       0.637128        17.3371 
 247   0.0000       0.644723        17.5438 
 248   0.0000       0.646736        17.5986 
 249   0.0000       0.655082        17.8257 
 250   0.0000       0.660141        17.9634 
 251   0.0000       0.667434        18.1618 
 252   0.0000       0.670699        18.2507 
 253   0.0000       0.674363        18.3504 
 254   0.0000       0.679929        18.5018 
 255   0.0000       0.682942        18.5838 
 256   0.0000       0.686914        18.6919 
 257   0.0000       0.689826        18.7711 
 258   0.0000       0.696553        18.9542 
 259   0.0000       0.699864        19.0443 
 260   0.0000       0.706613        19.2279 
 261   0.0000       0.711708        19.3666 
 262   0.0000       0.718014        19.5382 
 263   0.0000       0.721834        19.6421 
 264   0.0000       0.729344        19.8465 
 265   0.0000       0.734072        19.9751 
 266   0.0000       0.736926        20.0528 
 267   0.0000       0.738385        20.0925 
 268   0.0000       0.741854        20.1869 
 269   0.0000       0.745031        20.2733 
 270   0.0000       0.750367        20.4185 
 271   0.0000       0.753939        20.5157 
 272   0.0000       0.762403        20.7460 
 273   0.0000       0.767283        20.8788 
 274   0.0000       0.772279        21.0148 
 275   0.0000       0.773171        21.0390 
 276   0.0000       0.778857        21.1938 
 277   0.0000       0.782824        21.3017 
 278   0.0000       0.784487        21.3470 
 279   0.0000       0.793442        21.5907 
 280   0.0000       0.798117        21.7179 
 281   0.0000       0.803998        21.8779 
 282   0.0000       0.805315        21.9137 
 283   0.0000       0.812369        22.1057 
 284   0.0000       0.815896        22.2017 
 285   0.0000       0.818059        22.2605 
 286   0.0000       0.823314        22.4035 
 287   0.0000       0.825268        22.4567 
 288   0.0000       0.831610        22.6292 
 289   0.0000       0.838207        22.8088 
 290   0.0000       0.840893        22.8819 
 291   0.0000       0.843974        22.9657 
 292   0.0000       0.848798        23.0970 
 293   0.0000       0.854685        23.2572 
 294   0.0000       0.859762        23.3953 
 295   0.0000       0.864285        23.5184 
 296   0.0000       0.866036        23.5660 
 297   0.0000       0.871668        23.7193 
 298   0.0000       0.880557        23.9612 
 299   0.0000       0.883142        24.0315 
 300   0.0000       0.886067        24.1111 
 301   0.0000       0.893386        24.3103 
 302   0.0000       0.900179        24.4951 
 303   0.0000       0.901314        24.5260 
 304   0.0000       0.909041        24.7363 
 305   0.0000       0.913262        24.8511 
 306   0.0000       0.915977        24.9250 
 307   0.0000       0.917730        24.9727 
 308   0.0000       0.922075        25.0909 
 309   0.0000       0.925080        25.1727 
 310   0.0000       0.929366        25.2893 
 311   0.0000       0.936419        25.4812 
 312   0.0000       0.940161        25.5831 
 313   0.0000       0.946836        25.7647 
 314   0.0000       0.950924        25.8760 
 315   0.0000       0.951821        25.9004 
 316   0.0000       0.955557        26.0020 
 317   0.0000       0.958531        26.0830 
 318   0.0000       0.962456        26.1898 
 319   0.0000       0.967766        26.3343 
 320   0.0000       0.971679        26.4407 
 321   0.0000       0.973239        26.4832 
 322   0.0000       0.976817        26.5805 
 323   0.0000       0.983944        26.7745 
 324   0.0000       0.988013        26.8852 
 325   0.0000       0.991758        26.9871 
 326   0.0000       0.996292        27.1105 
 327   0.0000       1.000075        27.2134 
 328   0.0000       1.004183        27.3252 
 329   0.0000       1.011508        27.5245 
 330   0.0000       1.013043        27.5663 
 331   0.0000       1.017124        27.6774 
 332   0.0000       1.021357        27.7925 
 333   0.0000       1.024793        27.8860 
 334   0.0000       1.026540        27.9336 
 335   0.0000       1.030354        28.0374 
 336   0.0000       1.034892        28.1608 
 337   0.0000       1.037791        28.2397 
 338   0.0000       1.043384        28.3919 
 339   0.0000       1.046557        28.4783 
 340   0.0000       1.049145        28.5487 
 341   0.0000       1.050361        28.5818 
 342   0.0000       1.053619        28.6704 
 343   0.0000       1.057217        28.7683 
 344   0.0000       1.063960        28.9518 
 345   0.0000       1.068340        29.0710 
 346   0.0000       1.070318        29.1248 
 347   0.0000       1.075010        29.2525 
 348   0.0000       1.079934        29.3865 
 349   0.0000       1.083778        29.4911 
 350   0.0000       1.087577        29.5945 
 351   0.0000       1.090499        29.6740 
 352   0.0000       1.097118        29.8541 
 353   0.0000       1.100223        29.9386 
 354   0.0000       1.107725        30.1427 
 355   0.0000       1.115110        30.3437 
 356   0.0000       1.116962        30.3941 
 357   0.0000       1.121384        30.5144 
 358   0.0000       1.125668        30.6310 
 359   0.0000       1.129693        30.7405 
 360   0.0000       1.132500        30.8169 
 361   0.0000       1.137645        30.9569 
 362   0.0000       1.146916        31.2092 
 363   0.0000       1.148916        31.2636 
 364   0.0000       1.154607        31.4184 
 365   0.0000       1.158118        31.5140 
 366   0.0000       1.162237        31.6261 
 367   0.0000       1.165169        31.7059 
 368   0.0000       1.172523        31.9060 
 369   0.0000       1.179386        32.0927 
 370   0.0000       1.182616        32.1806 
 371   0.0000       1.183173        32.1958 
 372   0.0000       1.190846        32.4046 
 373   0.0000       1.195830        32.5402 
 374   0.0000       1.200304        32.6619 
 375   0.0000       1.202474        32.7210 
 376   0.0000       1.210206        32.9314 
 377   0.0000       1.216891        33.1133 
 378   0.0000       1.223677        33.2979 
 379   0.0000       1.228689        33.4343 
 380   0.0000       1.232412        33.5356 
 381   0.0000       1.238881        33.7117 
 382   0.0000       1.244659        33.8689 
 383   0.0000       1.245887        33.9023 
 384   0.0000       1.253137        34.0996 
 385   0.0000       1.256863        34.2010 
 386   0.0000       1.261450        34.3258 
 387   0.0000       1.268943        34.5297 
 388   0.0000       1.276463        34.7343 
 389   0.0000       1.277275        34.7564 
 390   0.0000       1.289527        35.0898 
 391   0.0000       1.293287        35.1921 
 392   0.0000       1.295964        35.2650 
 393   0.0000       1.299062        35.3493 
 394   0.0000       1.304274        35.4911 
 395   0.0000       1.313027        35.7293 
 396   0.0000       1.315611        35.7996 
 397   0.0000       1.324175        36.0326 
 398   0.0000       1.325732        36.0750 
 399   0.0000       1.330152        36.1953 
 400   0.0000       1.334663        36.3180 
 401   0.0000       1.342065        36.5194 
 402   0.0000       1.345771        36.6203 
 403   0.0000       1.354052        36.8456 
 404   0.0000       1.356436        36.9105 
 405   0.0000       1.361132        37.0383 
 406   0.0000       1.369063        37.2541 
 407   0.0000       1.373420        37.3727 
 408   0.0000       1.377602        37.4865 
 409   0.0000       1.384930        37.6859 
 410   0.0000       1.387347        37.7516 
 411   0.0000       1.393501        37.9191 
 412   0.0000       1.398820        38.0638 
 413   0.0000       1.401191        38.1283 
 414   0.0000       1.411990        38.4222 
 415   0.0000       1.416257        38.5383 
 416   0.0000       1.416785        38.5527 
 417   0.0000       1.423703        38.7409 
 418   0.0000       1.433271        39.0013 
 419   0.0000       1.438742        39.1502 
 420   0.0000       1.444816        39.3154 
 421   0.0000       1.452024        39.5116 
 422   0.0000       1.453906        39.5628 
 423   0.0000       1.467713        39.9385 
 424   0.0000       1.471287        40.0358 
 425   0.0000       1.473746        40.1027 
 426   0.0000       1.482037        40.3283 
 427   0.0000       1.486079        40.4383 
 428   0.0000       1.486759        40.4568 
 429   0.0000       1.491943        40.5978 
 430   0.0000       1.505549        40.9681 
 431   0.0000       1.507670        41.0258 
 432   0.0000       1.510576        41.1049 
 433   0.0000       1.524535        41.4847 
 434   0.0000       1.532539        41.7025 
 435   0.0000       1.539926        41.9035 
 436   0.0000       1.546986        42.0956 
 437   0.0000       1.551027        42.2056 
 438   0.0000       1.556285        42.3487 
 439   0.0000       1.560664        42.4678 
 440   0.0000       1.567943        42.6659 
 441   0.0000       1.573242        42.8101 
 442   0.0000       1.581147        43.0252 
 443   0.0000       1.584796        43.1245 
 444   0.0000       1.593106        43.3506 
 445   0.0000       1.593731        43.3676 
 446   0.0000       1.597903        43.4812 
 447   0.0000       1.612787        43.8862 
 448   0.0000       1.614091        43.9216 
 449   0.0000       1.619491        44.0686 
 450   0.0000       1.621804        44.1315 
 451   0.0000       1.628669        44.3183 
 452   0.0000       1.633245        44.4429 
 453   0.0000       1.637536        44.5596 
 454   0.0000       1.649052        44.8730 
 455   0.0000       1.658664        45.1346 
 456   0.0000       1.659472        45.1565 
 457   0.0000       1.663999        45.2797 
 458   0.0000       1.669856        45.4391 
 459   0.0000       1.675701        45.5981 
 460   0.0000       1.682727        45.7893 
 461   0.0000       1.688034        45.9337 
 462   0.0000       1.696758        46.1711 
 463   0.0000       1.703093        46.3435 
 464   0.0000       1.711858        46.5820 
 465   0.0000       1.718596        46.7654 
 466   0.0000       1.722206        46.8636 
 467   0.0000       1.729501        47.0621 
 468   0.0000       1.734761        47.2052 
 469   0.0000       1.742379        47.4125 
 470   0.0000       1.746352        47.5207 
 471   0.0000       1.751732        47.6671 
 472   0.0000       1.756812        47.8053 
 473   0.0000       1.764272        48.0083 
 474   0.0000       1.770590        48.1802 
 475   0.0000       1.773032        48.2466 
 476   0.0000       1.777633        48.3719 
 477   0.0000       1.789735        48.7012 
 478   0.0000       1.799938        48.9788 
 479   0.0000       1.807560        49.1862 
 480   0.0000       1.812423        49.3185 
 481   0.0000       1.825422        49.6723 
 482   0.0000       1.835295        49.9409 
 483   0.0000       1.837615        50.0041 
 484   0.0000       1.848984        50.3134 
 485   0.0000       1.857464        50.5442 
 486   0.0000       1.862689        50.6864 
 487   0.0000       1.868090        50.8333 
 488   0.0000       1.881419        51.1960 
 489   0.0000       1.888872        51.3988 
 490   0.0000       1.904064        51.8122 
 491   0.0000       1.907819        51.9144 
 492   0.0000       1.910892        51.9980 
 493   0.0000       1.916797        52.1587 
 494   0.0000       1.920148        52.2499 
 495   0.0000       1.924282        52.3624 
 496   0.0000       1.935296        52.6621 
 497   0.0000       1.940416        52.8014 
 498   0.0000       1.953710        53.1631 
 499   0.0000       1.962073        53.3907 
 500   0.0000       1.967906        53.5495 
 501   0.0000       1.973156        53.6923 
 502   0.0000       1.977771        53.8179 
 503   0.0000       1.981194        53.9110 
 504   0.0000       1.988960        54.1223 
 505   0.0000       1.998565        54.3837 
 506   0.0000       2.005604        54.5753 
 507   0.0000       2.015946        54.8567 
 508   0.0000       2.021691        55.0130 
 509   0.0000       2.027095        55.1600 
 510   0.0000       2.037862        55.4530 
 511   0.0000       2.044107        55.6230 
 512   0.0000       2.052608        55.8543 
 513   0.0000       2.061127        56.0861 
 514   0.0000       2.070442        56.3396 
 515   0.0000       2.078560        56.5605 
 516   0.0000       2.080932        56.6250 
 517   0.0000       2.090600        56.8881 
 518   0.0000       2.097807        57.0842 
 519   0.0000       2.103399        57.2364 
 520   0.0000       2.110498        57.4296 
 521   0.0000       2.118380        57.6441 
 522   0.0000       2.124528        57.8113 
 523   0.0000       2.126788        57.8728 
 524   0.0000       2.137088        58.1531 
 525   0.0000       2.137399        58.1616 
 526   0.0000       2.147073        58.4248 
 527   0.0000       2.154480        58.6264 
 528   0.0000       2.162156        58.8353 
 529   0.0000       2.166429        58.9515 
 530   0.0000       2.176938        59.2375 
 531   0.0000       2.185174        59.4616 
 532   0.0000       2.187374        59.5215 
 533   0.0000       2.199104        59.8407 
 534   0.0000       2.207649        60.0732 
 535   0.0000       2.210597        60.1534 
 536   0.0000       2.215500        60.2868 
 537   0.0000       2.224127        60.5216 
 538   0.0000       2.228933        60.6523 
 539   0.0000       2.232436        60.7477 
 540   0.0000       2.237040        60.8729 
 541   0.0000       2.252040        61.2811 
 542   0.0000       2.255906        61.3863 
 543   0.0000       2.263319        61.5880 
 544   0.0000       2.267976        61.7148 
 545   0.0000       2.282216        62.1022 
 546   0.0000       2.288842        62.2826 
 547   0.0000       2.296463        62.4899 
 548   0.0000       2.301259        62.6204 
 549   0.0000       2.306550        62.7644 
 550   0.0000       2.309425        62.8426 
 551   0.0000       2.319925        63.1284 
 552   0.0000       2.330844        63.4255 
 553   0.0000       2.335420        63.5500 
 554   0.0000       2.337805        63.6149 
 555   0.0000       2.350871        63.9704 
 556   0.0000       2.355878        64.1067 
 557   0.0000       2.359691        64.2105 
 558   0.0000       2.374046        64.6011 
 559   0.0000       2.378647        64.7263 
 560   0.0000       2.382534        64.8320 
 561   0.0000       2.387053        64.9550 
 562   0.0000       2.400322        65.3161 
 563   0.0000       2.403485        65.4021 
 564   0.0000       2.410892        65.6037 
 565   0.0000       2.415931        65.7408 
 566   0.0000       2.418008        65.7973 
 567   0.0000       2.437025        66.3148 
 568   0.0000       2.439019        66.3691 
 569   0.0000       2.448750        66.6339 
 570   0.0000       2.455665        66.8221 
 571   0.0000       2.467240        67.1370 
 572   0.0000       2.470180        67.2170 
 573   0.0000       2.475582        67.3640 
 574   0.0000       2.479126        67.4604 
 575   0.0000       2.488851        67.7251 
 576   0.0000       2.489440        67.7411 
 577   0.0000       2.497667        67.9650 
 578   0.0000       2.506859        68.2151 
 579   0.0000       2.516378        68.4741 
 580   0.0000       2.520319        68.5814 
 581   0.0000       2.523186        68.6594 
 582   0.0000       2.532541        68.9139 
 583   0.0000       2.547063        69.3091 
 584   0.0000       2.551981        69.4429 
 585   0.0000       2.555327        69.5340 
 586   0.0000       2.566242        69.8310 
 587   0.0000       2.575272        70.0767 
 588   0.0000       2.578610        70.1675 
 589   0.0000       2.582956        70.2858 
 590   0.0000       2.589314        70.4588 
 591   0.0000       2.593052        70.5605 
 592   0.0000       2.602839        70.8268 
 593   0.0000       2.608934        70.9927 
 594   0.0000       2.619460        71.2791 
 595   0.0000       2.625808        71.4519 
 596   0.0000       2.642288        71.9003 
 597   0.0000       2.646789        72.0228 
 598   0.0000       2.650728        72.1300 
 599   0.0000       2.663248        72.4707 
 600   0.0000       2.664774        72.5122 
 601   0.0000       2.675641        72.8079 
 602   0.0000       2.689479        73.1845 
 603   0.0000       2.693595        73.2965 
 604   0.0000       2.695909        73.3594 
 605   0.0000       2.702797        73.5468 
 606   0.0000       2.713895        73.8488 
 607   0.0000       2.725436        74.1629 
 608   0.0000       2.740954        74.5852 
 609   0.0000       2.744555        74.6831 
 610   0.0000       2.753209        74.9186 
 611   0.0000       2.762063        75.1595 
 612   0.0000       2.770610        75.3921 
 613   0.0000       2.773972        75.4836 
 614   0.0000       2.782563        75.7174 
 615   0.0000       2.790550        75.9347 
 616   0.0000       2.796220        76.0890 
 617   0.0000       2.802836        76.2690 
 618   0.0000       2.815546        76.6149 
 619   0.0000       2.817870        76.6781 
 620   0.0000       2.831868        77.0590 
 621   0.0000       2.838714        77.2453 
 622   0.0000       2.847554        77.4859 
 623   0.0000       2.848371        77.5081 
 624   0.0000       2.859482        77.8105 
 625   0.0000       2.869437        78.0814 
 626   0.0000       2.886257        78.5390 
 627   0.0000       2.894097        78.7524 
 628   0.0000       2.906504        79.0900 
 629   0.0000       2.916187        79.3535 
 630   0.0000       2.920643        79.4747 
 631   0.0000       2.927813        79.6699 
 632   0.0000       2.950802        80.2954 
 633   0.0000       2.957513        80.4780 
 634   0.0000       2.972645        80.8898 
 635   0.0000       2.989028        81.3356 
 636   0.0000       2.989645        81.3524 
 637   0.0000       3.000676        81.6525 
 638   0.0000       3.028039        82.3971 
 639   0.0000       3.038399        82.6790 
 640   0.0000       3.042302        82.7852 
 641   0.0000       3.050049        82.9960 
 642   0.0000       3.064418        83.3870 
 643   0.0000       3.078267        83.7639 
 644   0.0000       3.089940        84.0815 
 645   0.0000       3.099898        84.3525 
 646   0.0000       3.104313        84.4727 
 647   0.0000       3.112561        84.6971 
 648   0.0000       3.136179        85.3398 
 649   0.0000       3.141857        85.4943 
 650   0.0000       3.149520        85.7028 
 651   0.0000       3.156592        85.8952 
 652   0.0000       3.163499        86.0832 
 653   0.0000       3.174548        86.3838 
 654   0.0000       3.196385        86.9781 
 655   0.0000       3.203391        87.1687 
 656   0.0000       3.209854        87.3446 
 657   0.0000       3.229888        87.8897 
 658   0.0000       3.240033        88.1658 
 659   0.0000       3.241327        88.2010 
 660   0.0000       3.244858        88.2971 
 661   0.0000       3.257643        88.6450 
 662   0.0000       3.265045        88.8464 
 663   0.0000       3.272822        89.0580 
 664   0.0000       3.281633        89.2978 
 665   0.0000       3.283066        89.3368 
 666   0.0000       3.298469        89.7559 
 667   0.0000       3.315883        90.2298 
 668   0.0000       3.319207        90.3202 
 669   0.0000       3.329184        90.5917 
 670   0.0000       3.337998        90.8315 
 671   0.0000       3.340730        90.9059 
 672   0.0000       3.347717        91.0960 
 673   0.0000       3.355181        91.2991 
 674   0.0000       3.361853        91.4807 
 675   0.0000       3.392733        92.3209 
 676   0.0000       3.398636        92.4816 
 677   0.0000       3.419465        93.0484 
 678   0.0000       3.429539        93.3225 
 679   0.0000       3.435428        93.4828 
 680   0.0000       3.451722        93.9261 
 681   0.0000       3.459657        94.1420 
 682   0.0000       3.468088        94.3715 
 683   0.0000       3.479521        94.6826 
 684   0.0000       3.491701        95.0140 
 685   0.0000       3.493979        95.0760 
 686   0.0000       3.518383        95.7401 
 687   0.0000       3.522479        95.8515 
 688   0.0000       3.533091        96.1403 
 689   0.0000       3.548491        96.5593 
 690   0.0000       3.555808        96.7584 
 691   0.0000       3.566633        97.0530 
 692   0.0000       3.584101        97.5283 
 693   0.0000       3.589569        97.6771 
 694   0.0000       3.594231        97.8040 
 695   0.0000       3.601260        97.9953 
 696   0.0000       3.617509        98.4374 
 697   0.0000       3.627517        98.7097 
 698   0.0000       3.641171        99.0813 
 699   0.0000       3.646403        99.2237 
 700   0.0000       3.652978        99.4026 
 701   0.0000       3.664505        99.7163 
 702   0.0000       3.681821       100.1875 
 703   0.0000       3.693855       100.5149 
 704   0.0000       3.702396       100.7473 
 705   0.0000       3.710821       100.9766 
 706   0.0000       3.716684       101.1361 
 707   0.0000       3.733244       101.5867 
 708   0.0000       3.735487       101.6478 
 709   0.0000       3.740937       101.7961 
 710   0.0000       3.762529       102.3836 
 711   0.0000       3.769078       102.5618 
 712   0.0000       3.772589       102.6574 
 713   0.0000       3.780928       102.8843 
 714   0.0000       3.788773       103.0978 
 715   0.0000       3.799176       103.3808 
 716   0.0000       3.816396       103.8494 
 717   0.0000       3.822704       104.0211 
 718   0.0000       3.831742       104.2670 
 719   0.0000       3.834000       104.3284 
 720   0.0000       3.850337       104.7730 
 721   0.0000       3.862341       105.0996 
 722   0.0000       3.867498       105.2400 
 723   0.0000       3.879467       105.5657 
 724   0.0000       3.884829       105.7116 
 725   0.0000       3.902226       106.1850 
 726   0.0000       3.912881       106.4749 
 727   0.0000       3.918734       106.6342 
 728   0.0000       3.928350       106.8958 
 729   0.0000       3.948625       107.4475 
 730   0.0000       3.949470       107.4705 
 731   0.0000       3.958285       107.7104 
 732   0.0000       3.975699       108.1843 
 733   0.0000       3.989091       108.5487 
 734   0.0000       3.994823       108.7046 
 735   0.0000       4.006233       109.0151 
 736   0.0000       4.014787       109.2479 
 737   0.0000       4.027835       109.6030 
 738   0.0000       4.029423       109.6462 
 739   0.0000       4.043830       110.0382 
 740   0.0000       4.064776       110.6082 
 741   0.0000       4.069908       110.7478 
 742   0.0000       4.077629       110.9579 
 743   0.0000       4.089727       111.2871 
 744   0.0000       4.100479       111.5797 
 745   0.0000       4.103196       111.6536 
 746   0.0000       4.123240       112.1991 
 747   0.0000       4.130297       112.3911 
 748   0.0000       4.139209       112.6336 
 749   0.0000       4.151471       112.9673 
 750   0.0000       4.153818       113.0311 
 751   0.0000       4.178434       113.7010 
 752   0.0000       4.183762       113.8460 
 753   0.0000       4.195967       114.1781 
 754   0.0000       4.203498       114.3830 
 755   0.0000       4.207834       114.5010 
 756   0.0000       4.221133       114.8629 
 757   0.0000       4.238141       115.3257 
 758   0.0000       4.250526       115.6627 
 759   0.0000       4.255197       115.7898 
 760   0.0000       4.265152       116.0607 
 761   0.0000       4.281885       116.5160 
 762   0.0000       4.287597       116.6714 
 763   0.0000       4.296613       116.9168 
 764   0.0000       4.300253       117.0158 
 765   0.0000       4.310977       117.3076 
 766   0.0000       4.314939       117.4155 
 767   0.0000       4.329963       117.8243 
 768   0.0000       4.335168       117.9659 
 769   0.0000       4.344407       118.2173 
 770   0.0000       4.353406       118.4622 
 771   0.0000       4.366007       118.8051 
 772   0.0000       4.379836       119.1814 
 773   0.0000       4.387125       119.3797 
 774   0.0000       4.397558       119.6636 
 775   0.0000       4.414793       120.1326 
 776   0.0000       4.426750       120.4580 
 777   0.0000       4.432661       120.6188 
 778   0.0000       4.450738       121.1107 
 779   0.0000       4.469806       121.6296 
 780   0.0000       4.476370       121.8082 
[...]
      px      :     2.711112
      py      :     2.662696
      dz2     :     0.483151  d :     2.187391
      dxz     :     0.388255
      dyz     :     0.313269
      dx2y2   :     0.485602
      dxy     :     0.517114
      f0      :     0.122544  f :     1.184368
      f+1     :     0.179990
      f-1     :     0.141950
      f+2     :     0.136979
      f-2     :     0.149697
      f+3     :     0.178893
      f-3     :     0.274315
 11 O s       :     3.323204  s :     3.323204
      pz      :     1.466742  p :     4.324206
      px      :     1.433935
      py      :     1.423529
      dz2     :     0.036381  d :     0.223454
      dxz     :     0.033720
      dyz     :     0.038325
      dx2y2   :     0.051828
      dxy     :     0.063200
      f0      :     0.006574  f :     0.072859
      f+1     :     0.007185
      f-1     :     0.010020
      f+2     :     0.004298
      f-2     :     0.014222
      f+3     :     0.015032
      f-3     :     0.015527
 12 O s       :     3.305219  s :     3.305219
      pz      :     1.455462  p :     4.303273
      px      :     1.393699
      py      :     1.454112
      dz2     :     0.041377  d :     0.226909
      dxz     :     0.062293
      dyz     :     0.008434
      dx2y2   :     0.061541
      dxy     :     0.053264
      f0      :     0.006921  f :     0.073033
      f+1     :     0.016191
      f-1     :     0.001215
      f+2     :     0.013892
      f-2     :     0.004418
      f+3     :     0.015340
      f-3     :     0.015056
 13 N s       :     2.717359  s :     2.717359
      pz      :     1.160646  p :     3.123173
      px      :     0.998226
      py      :     0.964300
      dz2     :     0.046192  d :     0.372829
      dxz     :     0.034639
      dyz     :     0.060769
      dx2y2   :     0.120351
      dxy     :     0.110877
      f0      :     0.007819  f :     0.110775
      f+1     :     0.007617
      f-1     :     0.016993
      f+2     :     0.012373
      f-2     :     0.015820
      f+3     :     0.023543
      f-3     :     0.026610
 14 H s       :     0.610507  s :     0.610507
      pz      :     0.167067  p :     0.467860
      px      :     0.194179
      py      :     0.106614
      dz2     :     0.044642  d :     0.330617
      dxz     :     0.108044
      dyz     :     0.012578
      dx2y2   :     0.062232
      dxy     :     0.103122
 15 H s       :     0.607947  s :     0.607947
      pz      :     0.152152  p :     0.434288
      px      :     0.123400
      py      :     0.158736
      dz2     :     0.043058  d :     0.306939
      dxz     :     0.029902
      dyz     :     0.073396
      dx2y2   :     0.090910
      dxy     :     0.069672
 16 N s       :     2.609679  s :     2.609679
      pz      :     0.958562  p :     2.990481
      px      :     0.938520
      py      :     1.093399
      dz2     :     0.156384  d :     0.603172
      dxz     :     0.217488
      dyz     :     0.090710
      dx2y2   :     0.065305
      dxy     :     0.073285
      f0      :     0.036335  f :     0.226287
      f+1     :     0.084471
      f-1     :     0.028043
      f+2     :     0.020125
      f-2     :     0.019545
      f+3     :     0.015762
      f-3     :     0.022004
 17 C s       :     2.424883  s :     2.424883
      pz      :     0.737575  p :     2.141317
      px      :     0.631506
      py      :     0.772236
      dz2     :     0.187932  d :     0.919270
      dxz     :     0.172286
      dyz     :     0.129075
      dx2y2   :     0.228776
      dxy     :     0.201200
      f0      :     0.027210  f :     0.466945
      f+1     :     0.100784
      f-1     :     0.036478
      f+2     :     0.072475
      f-2     :     0.076844
      f+3     :     0.074791
      f-3     :     0.078362
 18 N s       :     2.704594  s :     2.704594
      pz      :     0.956137  p :     3.082560
      px      :     1.003955
      py      :     1.122468
      dz2     :     0.137294  d :     0.581367
      dxz     :     0.157883
      dyz     :     0.114260
      dx2y2   :     0.101826
      dxy     :     0.070105
      f0      :     0.028512  f :     0.202650
      f+1     :     0.044951
      f-1     :     0.032056
      f+2     :     0.033842
      f-2     :     0.024173
      f+3     :     0.022263
      f-3     :     0.016853
 19 O s       :     3.322201  s :     3.322201
      pz      :     1.425848  p :     4.305904
      px      :     1.432513
      py      :     1.447542
      dz2     :     0.036313  d :     0.218321
      dxz     :     0.043606
      dyz     :     0.038206
      dx2y2   :     0.047861
      dxy     :     0.052334
      f0      :     0.006774  f :     0.072481
      f+1     :     0.010584
      f-1     :     0.006886
      f+2     :     0.008277
      f-2     :     0.016355
      f+3     :     0.010992
      f-3     :     0.012611
 20 O s       :     3.319421  s :     3.319421
      pz      :     1.447178  p :     4.311867
      px      :     1.464668
      py      :     1.400021
      dz2     :     0.027115  d :     0.221323
      dxz     :     0.012145
      dyz     :     0.056122
      dx2y2   :     0.068357
      dxy     :     0.057583
      f0      :     0.007659  f :     0.071928
      f+1     :     0.001598
      f-1     :     0.011187
      f+2     :     0.010655
      f-2     :     0.005329
      f+3     :     0.017016
      f-3     :     0.018484
 21 H s       :     0.634173  s :     0.634173
      pz      :     0.121440  p :     0.277996
      px      :     0.064889
      py      :     0.091667
      dz2     :     0.057733  d :     0.224514
      dxz     :     0.068029
      dyz     :     0.056424
      dx2y2   :     0.027115
      dxy     :     0.015213
 22 H s       :     0.599859  s :     0.599859
      pz      :     0.127324  p :     0.420515
      px      :     0.166072
      py      :     0.127118
      dz2     :     0.061322  d :     0.307893
      dxz     :     0.075314
      dyz     :     0.038789
      dx2y2   :     0.058547
      dxy     :     0.073921
 23 H s       :     0.579283  s :     0.579283
      pz      :     0.113281  p :     0.393987
      px      :     0.149491
      py      :     0.131216
      dz2     :     0.062250  d :     0.288769
      dxz     :     0.070402
      dyz     :     0.032804
      dx2y2   :     0.056290
      dxy     :     0.067023
 24 H s       :     0.636798  s :     0.636798
      pz      :     0.081952  p :     0.295108
      px      :     0.073536
      py      :     0.139620
      dz2     :     0.020054  d :     0.225514
      dxz     :     0.022206
      dyz     :     0.072648
      dx2y2   :     0.052801
      dxy     :     0.057805


                      *****************************
                      * MAYER POPULATION ANALYSIS *
                      *****************************

  NA   - Mulliken gross atomic population
  ZA   - Total nuclear charge
  QA   - Mulliken gross atomic charge
  VA   - Mayer's total valence
  BVA  - Mayer's bonded valence
  FA   - Mayer's free valence

  ATOM       NA         ZA         QA         VA         BVA        FA
  0 C      6.2021     6.0000    -0.2021     4.5686     4.5686     0.0000
  1 C      5.2842     6.0000     0.7158     2.6253     2.6253     0.0000
  2 Cl    17.5007    17.0000    -0.5007     0.4806     0.4806     0.0000
  3 C      6.3321     6.0000    -0.3321     1.2787     1.2787    -0.0000
  4 H      0.4876     1.0000     0.5124     0.5862     0.5862    -0.0000
  5 C      5.3453     6.0000     0.6547     1.7033     1.7033    -0.0000
  6 C      5.1277     6.0000     0.8723     2.7272     2.7272    -0.0000
  7 S     14.0138    16.0000     1.9862     4.3560     4.3560    -0.0000
  8 C      7.4215     6.0000    -1.4215     2.0792     2.0792    -0.0000
  9 H      0.6660     1.0000     0.3340     0.9989     0.9989    -0.0000
 10 S     13.8275    16.0000     2.1725     4.3268     4.3268     0.0000
 11 O      8.9704     8.0000    -0.9704     1.4757     1.4757     0.0000
 12 O      8.9488     8.0000    -0.9488     1.4063     1.4063    -0.0000
 13 N      7.6358     7.0000    -0.6358     2.9599     2.9599     0.0000
 14 H      0.8504     1.0000     0.1496     1.0694     1.0694     0.0000
 15 H      0.8581     1.0000     0.1419     1.0649     1.0649    -0.0000
 16 N      7.4635     7.0000    -0.4635     2.2983     2.2983    -0.0000
 17 C      6.4271     6.0000    -0.4271     3.6970     3.6970    -0.0000
 18 N      7.4741     7.0000    -0.4741     2.9472     2.9472    -0.0000
 19 O      8.9748     8.0000    -0.9748     1.3317     1.3317    -0.0000
 20 O      8.9971     8.0000    -0.9971     1.5731     1.5731    -0.0000
 21 H      0.5431     1.0000     0.4569     0.8622     0.8622     0.0000
 22 H      1.0047     1.0000    -0.0047     1.1837     1.1837    -0.0000
 23 H      0.9845     1.0000     0.0155     1.1349     1.1349    -0.0000
 24 H      0.6593     1.0000     0.3407     1.0754     1.0754    -0.0000

  Mayer bond orders larger than 0.100000
B(  0-C ,  1-C ) :   1.3445 B(  0-C ,  2-Cl) :   0.6784 B(  0-C ,  3-C ) :  -0.2832 
B(  0-C ,  5-C ) :  -0.1761 B(  0-C ,  6-C ) :   0.5593 B(  0-C ,  8-C ) :   1.0526 
B(  0-C , 10-S ) :   0.7990 B(  0-C , 11-O ) :   0.2449 B(  0-C , 12-O ) :   0.2095 
B(  0-C , 13-N ) :   0.1250 B(  0-C , 19-O ) :  -0.1149 B(  1-C ,  3-C ) :   1.4269 
B(  3-C ,  4-H ) :   0.5911 B(  3-C ,  5-C ) :   0.3125 B(  3-C ,  8-C ) :  -0.1982 
B(  3-C , 16-N ) :  -0.2120 B(  4-H ,  6-C ) :   0.1633 B(  5-C ,  6-C ) :   0.8319 
B(  5-C ,  7-S ) :   0.2631 B(  5-C , 16-N ) :   0.8021 B(  5-C , 18-N ) :  -0.1336 
B(  6-C ,  7-S ) :   0.7976 B(  6-C ,  8-C ) :   0.2655 B(  6-C , 16-N ) :  -0.2896 
B(  6-C , 18-N ) :   0.1006 B(  6-C , 19-O ) :   0.3849 B(  7-S , 18-N ) :   1.0521 
B(  7-S , 19-O ) :   0.9907 B(  7-S , 20-O ) :   1.3154 B(  8-C ,  9-H ) :   0.7859 
B( 10-S , 11-O ) :   1.2868 B( 10-S , 12-O ) :   1.2498 B( 10-S , 13-N ) :   0.8910 
B( 13-N , 14-H ) :   0.9391 B( 13-N , 15-H ) :   0.9619 B( 16-N , 17-C ) :   0.9383 
B( 16-N , 23-H ) :   1.1897 B( 17-C , 18-N ) :   0.8742 B( 17-C , 21-H ) :   0.8160 
B( 17-C , 24-H ) :   0.9515 B( 18-N , 20-O ) :   0.1241 B( 18-N , 22-H ) :   0.9712 


-------
TIMINGS
-------

Total SCF time: 0 days 0 hours 5 min 5 sec 

Total time                  ....     305.218 sec
Sum of individual times     ....     302.304 sec  ( 99.0%)

Fock matrix formation       ....     292.275 sec  ( 95.8%)
  Split-RI-J                ....      17.888 sec  (  6.1% of F)
  Chain of spheres X        ....     241.839 sec  ( 82.7% of F)
  XC integration            ....      31.165 sec  ( 10.7% of F)
    Basis function eval.    ....       4.790 sec  ( 15.4% of XC)
    Density eval.           ....      12.423 sec  ( 39.9% of XC)
    XC-Functional eval.     ....       0.232 sec  (  0.7% of XC)
    XC-Potential eval.      ....      11.534 sec  ( 37.0% of XC)
Diagonalization             ....       2.074 sec  (  0.7%)
Density matrix formation    ....       0.164 sec  (  0.1%)
Population analysis         ....       0.196 sec  (  0.1%)
Initial guess               ....       1.855 sec  (  0.6%)
Orbital Transformation      ....       0.000 sec  (  0.0%)
Orbital Orthonormalization  ....       0.000 sec  (  0.0%)
DIIS solution               ....       0.919 sec  (  0.3%)
SOSCF solution              ....       1.632 sec  (  0.5%)
Grid generation             ....       3.189 sec  (  1.0%)

Maximum memory used throughout the entire SCF-calculation: 243.4 MB


           ************************************************************
           *        Program running with 8 parallel MPI-processes     *
           *              working on a common directory               *
           ************************************************************

------------------------------------------------------------------------------
                                ORCA  MP2 
------------------------------------------------------------------------------

Freezing NCore=58 chemical core electrons

   <<< Use J-auxbasis for calculation of Separable RI-J derivative contributions (Dim=927) >>> 


-------------
RI-MP2 ENERGY
-------------
Dimension of the basis                    ...  978
Memory devoted to MP2                     ... 3000 MB   
Data format for buffers                   ... DOUBLE
Compression type for matrix containers    ... UNCOMPRESSED
Scaling for aa/bb pairs                   ...   2.500e-01
Scaling for ab pairs                      ...   5.300e-01
Overall scaling of the MP2 energy         ...   1.000e+00
Calculating two index integrals           ... done (    0.052 sec)
Cholesky decomposition of V**-1           ... done (    0.444 sec)

-----------------
RI-TRANSFORMATION (AUX index driven)
-----------------

Dimension of the orbital-basis         ... 978
Dimension of the aux-basis             ... 2293
Transformation of internal/external MOs...   29-  75 to   76- 977
Number Format for Storage              ... Double (8 Byte)
Integral mode                          ... Direct

First Phase: integral generation and transformation of MO indices
  Aux angular momentum 0               ... done (    0.684 sec)
  Aux angular momentum 1               ... done (    1.259 sec)
  Aux angular momentum 2               ... done (    1.769 sec)
  Aux angular momentum 3               ... done (    1.752 sec)
  Aux angular momentum 4               ... done (    0.962 sec)
Closing buffer VIA ( 0.72 GB; CompressionRatio= 1.00)
  Phase 1 completed in     6.675 sec
Second Phase: sorting and transformation of aux index

IA-Transformation
Memory available                       ... 2890 MB 
Max. # MO pairs treated in a batch     ... 6    
# of internal orbitals                 ... 47
# batches for internal orbitals        ... 1
Closing buffer IAV ( 0.72 GB; CompressionRatio= 1.00)
(ia|v) transformation done in     1.199 sec

  Phase 2 completed in     2.344 sec
RI-Integral transformation completed in     9.031 sec
Opening buffers                              ... done

Starting loop over batches of integrals:

Operator 0  - window                       ... ( 29- 75)x( 76-977)
Operator 0  - Memory available             ...  3000 MB
Operator 0  - Memory needed per MO         ...  15.8 MB
Operator 0  - Number of orbitals per batch ... 6
Operator 0  - Number of batches            ... 1

OPERATOR  0   PASS   0:  MOs    29 ...   34 +   35 ...   40 +   41 ...   46 +   47 ...   52
                            +   53 ...   58 +   59 ...   64 +   65 ...   70 +   71 ...   75
  Reading integrals       ... ok
  Internal MO  31
  Internal MO  34
Time spent in pair loops =     1.486 sec
Deleting buffer (Ka|jb)[aa] ...done

-----------------------------------------------
 RI-MP2 CORRELATION ENERGY:     -1.699057779 Eh
-----------------------------------------------


-------
TIMINGS
-------

Total time                :   26.079 sec
Integral trafo            :    9.045 sec ( 34.7%)
I/O of integrals          :    0.054 sec (  0.2%)
K(i,j) Operators          :    1.197 sec (  4.6%)
T(i,j) pair energies      :    0.140 sec (  0.5%)
V-calculation             :    0.052 sec (  0.2%)
V**(-1/2)                 :    0.444 sec (  1.7%)
Gamma(ia|P)               :    0.000 sec (  0.0%)
Gamma-Trafo               :    0.000 sec (  0.0%)
D(virtual)                :    0.000 sec (  0.0%)
D(internal)               :    0.000 sec (  0.0%)
W(virtual)                :    0.000 sec (  0.0%)
W(internal)               :    0.000 sec (  0.0%)
L(virtual)                :    0.000 sec (  0.0%)
L(internal)               :    0.000 sec (  0.0%)
G(D)                      :    0.000 sec (  0.0%)
G(Z)                      :    0.000 sec (  0.0%)
Z-Vector Solution         :    0.000 sec (  0.0%)
3-Index Derivative        :    0.000 sec (  0.0%)
2-Index Derivative        :    0.000 sec (  0.0%)
Separable Gradient (RIJ)  :    0.000 sec (  0.0%)
Separable Gradient (COSX) :    0.000 sec (  0.0%)


---------------------------------------
MP2 TOTAL ENERGY:    -1991.424147841 Eh
---------------------------------------

Maximum memory used throughout the entire MP2-calculation: 282.9 MB


-------------------------------------------------------------------------------
                          DFT DISPERSION CORRECTION                            
                                                                               
                              DFTD3 V3.1  Rev 1                                
                          USING Becke-Johnson damping                          
-------------------------------------------------------------------------------
The DSD-PBEP86 functional is recognized
Active option DFTDOPT                   ...         4   

molecular C6(AA) [au] = 11174.606813 


            DFT-D V3
 parameters
 s6 scaling factor         :     0.4180 
 a1 scaling factor         :     0.0000 
 s8 scaling factor         :     0.0000 
 a2 scaling factor         :     5.6500 
 ad hoc parameters k1-k3   :    16.0000     1.3333    -4.0000 

 Edisp/kcal,au: -14.954783890509  -0.023831962565 
 E6   /kcal   : -14.954783891 
 E8   /kcal   :  -0.000000000 
 % E8         :   0.000000000 

-------------------------   ----------------
Dispersion correction           -0.023831963
-------------------------   ----------------


-------------------------   --------------------
FINAL SINGLE POINT ENERGY     -1991.447979804049
-------------------------   --------------------


                            ***************************************
                            *     ORCA property calculations      *
                            ***************************************


  WARNING: The energy has been calculated at the MP2 level but the densities
           used in the property calculations are still SCF densities
           MP2 response densities have not been calculated 
           use %mp2 Density relaxed end
           or  %mp2 Density unrelaxed end

                                    ---------------------
                                    Active property flags
                                    ---------------------
   (+) Dipole Moment


------------------------------------------------------------------------------
                       ORCA ELECTRIC PROPERTIES CALCULATION
------------------------------------------------------------------------------

Dipole Moment Calculation                       ... on
Quadrupole Moment Calculation                   ... off
Polarizability Calculation                      ... off
GBWName                                         ... HA.32.avtz.gbw
Electron density                                ... HA.32.avtz.scfp
The origin for moment calculation is the CENTER OF MASS  = (-1.520123,  1.175145 -3.381355)

-------------
DIPOLE MOMENT
-------------
                                X             Y             Z
Electronic contribution:     -6.00696      -1.55390       7.84019
Nuclear contribution   :      4.27943       2.92872     -11.40303
                        -----------------------------------------
Total Dipole Moment    :     -1.72753       1.37483      -3.56285
                        -----------------------------------------
Magnitude (a.u.)       :      4.19147
Magnitude (Debye)      :     10.65386



--------------------
Rotational spectrum 
--------------------
 
Rotational constants in cm-1:     0.022077     0.007833     0.006236 
Rotational constants in MHz :   661.856610   234.838936   186.944303 

 Dipole components along the rotational axes: 
x,y,z [a.u.] :    -1.731691     3.462425    -1.606629 
x,y,z [Debye]:    -4.401610     8.800786    -4.083727 

 

Timings for individual modules:

Sum of individual times         ...      337.789 sec (=   5.630 min)
GTO integral calculation        ...        3.848 sec (=   0.064 min)   1.1 %
SCF iterations                  ...      306.484 sec (=   5.108 min)  90.7 %
MP2 module                      ...       27.457 sec (=   0.458 min)   8.1 %
                             ****ORCA TERMINATED NORMALLY****
TOTAL RUN TIME: 0 days 0 hours 5 minutes 40 seconds 465 msec
