
                                 *****************
                                 * O   R   C   A *
                                 *****************

                                            #,                                       
                                            ###                                      
                                            ####                                     
                                            #####                                    
                                            ######                                   
                                           ########,                                 
                                     ,,################,,,,,                         
                               ,,#################################,,                 
                          ,,##########################################,,             
                       ,#########################################, ''#####,          
                    ,#############################################,,   '####,        
                  ,##################################################,,,,####,       
                ,###########''''           ''''###############################       
              ,#####''   ,,,,##########,,,,          '''####'''          '####       
            ,##' ,,,,###########################,,,                        '##       
           ' ,,###''''                  '''############,,,                           
         ,,##''                                '''############,,,,        ,,,,,,###''
      ,#''                                            '''#######################'''  
     '                                                          ''''####''''         
             ,#######,   #######,   ,#######,      ##                                
            ,#'     '#,  ##    ##  ,#'     '#,    #''#        ######   ,####,        
            ##       ##  ##   ,#'  ##            #'  '#       #        #'  '#        
            ##       ##  #######   ##           ,######,      #####,   #    #        
            '#,     ,#'  ##    ##  '#,     ,#' ,#      #,         ##   #,  ,#        
             '#######'   ##     ##  '#######'  #'      '#     #####' # '####'        



                  #######################################################
                  #                        -***-                        #
                  #          Department of theory and spectroscopy      #
                  #    Directorship and core code : Frank Neese         #
                  #        Max Planck Institute fuer Kohlenforschung    #
                  #                Kaiser Wilhelm Platz 1               #
                  #                 D-45470 Muelheim/Ruhr               #
                  #                      Germany                        #
                  #                                                     #
                  #                  All rights reserved                #
                  #                        -***-                        #
                  #######################################################


                         Program Version 5.0.3 -  RELEASE  -


 With contributions from (in alphabetic order):
   Daniel Aravena         : Magnetic Suceptibility
   Michael Atanasov       : Ab Initio Ligand Field Theory (pilot matlab implementation)
   Alexander A. Auer      : GIAO ZORA, VPT2 properties, NMR spectrum
   Ute Becker             : Parallelization
   Giovanni Bistoni       : ED, misc. LED, open-shell LED, HFLD
   Martin Brehm           : Molecular dynamics
   Dmytro Bykov           : SCF Hessian
   Vijay G. Chilkuri      : MRCI spin determinant printing, contributions to CSF-ICE
   Dipayan Datta          : RHF DLPNO-CCSD density
   Achintya Kumar Dutta   : EOM-CC, STEOM-CC
   Dmitry Ganyushin       : Spin-Orbit,Spin-Spin,Magnetic field MRCI
   Miquel Garcia          : C-PCM and meta-GGA Hessian, CC/C-PCM, Gaussian charge scheme
   Yang Guo               : DLPNO-NEVPT2, F12-NEVPT2, CIM, IAO-localization
   Andreas Hansen         : Spin unrestricted coupled pair/coupled cluster methods
   Benjamin Helmich-Paris : MC-RPA, TRAH-SCF, COSX integrals
   Lee Huntington         : MR-EOM, pCC
   Robert Izsak           : Overlap fitted RIJCOSX, COSX-SCS-MP3, EOM
   Marcus Kettner         : VPT2
   Christian Kollmar      : KDIIS, OOCD, Brueckner-CCSD(T), CCSD density, CASPT2, CASPT2-K
   Simone Kossmann        : Meta GGA functionals, TD-DFT gradient, OOMP2, MP2 Hessian
   Martin Krupicka        : Initial AUTO-CI
   Lucas Lang             : DCDCAS
   Marvin Lechner         : AUTO-CI (C++ implementation), FIC-MRCC
   Dagmar Lenk            : GEPOL surface, SMD
   Dimitrios Liakos       : Extrapolation schemes; Compound Job, initial MDCI parallelization
   Dimitrios Manganas     : Further ROCIS development; embedding schemes
   Dimitrios Pantazis     : SARC Basis sets
   Anastasios Papadopoulos: AUTO-CI, single reference methods and gradients
   Taras Petrenko         : DFT Hessian,TD-DFT gradient, ASA, ECA, R-Raman, ABS, FL, XAS/XES, NRVS
   Peter Pinski           : DLPNO-MP2, DLPNO-MP2 Gradient
   Christoph Reimann      : Effective Core Potentials
   Marius Retegan         : Local ZFS, SOC
   Christoph Riplinger    : Optimizer, TS searches, QM/MM, DLPNO-CCSD(T), (RO)-DLPNO pert. Triples
   Tobias Risthaus        : Range-separated hybrids, TD-DFT gradient, RPA, STAB
   Michael Roemelt        : Original ROCIS implementation
   Masaaki Saitow         : Open-shell DLPNO-CCSD energy and density
   Barbara Sandhoefer     : DKH picture change effects
   Avijit Sen             : IP-ROCIS
   Kantharuban Sivalingam : CASSCF convergence, NEVPT2, FIC-MRCI
   Bernardo de Souza      : ESD, SOC TD-DFT
   Georgi Stoychev        : AutoAux, RI-MP2 NMR, DLPNO-MP2 response
   Willem Van den Heuvel  : Paramagnetic NMR
   Boris Wezisla          : Elementary symmetry handling
   Frank Wennmohs         : Technical directorship


 We gratefully acknowledge several colleagues who have allowed us to
 interface, adapt or use parts of their codes:
   Stefan Grimme, W. Hujo, H. Kruse, P. Pracht,  : VdW corrections, initial TS optimization,
                  C. Bannwarth, S. Ehlert          DFT functionals, gCP, sTDA/sTD-DF
   Ed Valeev, F. Pavosevic, A. Kumar             : LibInt (2-el integral package), F12 methods
   Garnet Chan, S. Sharma, J. Yang, R. Olivares  : DMRG
   Ulf Ekstrom                                   : XCFun DFT Library
   Mihaly Kallay                                 : mrcc  (arbitrary order and MRCC methods)
   Jiri Pittner, Ondrej Demel                    : Mk-CCSD
   Frank Weinhold                                : gennbo (NPA and NBO analysis)
   Christopher J. Cramer and Donald G. Truhlar   : smd solvation model
   Lars Goerigk                                  : TD-DFT with DH, B97 family of functionals
   V. Asgeirsson, H. Jonsson                     : NEB implementation
   FAccTs GmbH                                   : IRC, NEB, NEB-TS, DLPNO-Multilevel, CI-OPT
                                                   MM, QMMM, 2- and 3-layer-ONIOM, Crystal-QMMM,
                                                   LR-CPCM, SF, NACMEs, symmetry and pop. for TD-DFT,
                                                   nearIR, NL-DFT gradient (VV10), updates on ESD,
                                                   ML-optimized integration grids
   S Lehtola, MJT Oliveira, MAL Marques          : LibXC Library
   Liviu Ungur et al                             : ANISO software


 Your calculation uses the libint2 library for the computation of 2-el integrals
 For citations please refer to: http://libint.valeyev.net

 Your ORCA version has been built with support for libXC version: 5.1.0
 For citations please refer to: https://tddft.org/programs/libxc/

 This ORCA versions uses:
   CBLAS   interface :  Fast vector & matrix operations
   LAPACKE interface :  Fast linear algebra routines
   SCALAPACK package :  Parallel linear algebra routines
   Shared memory     :  Shared parallel matrices
   BLAS/LAPACK       :  OpenBLAS 0.3.15  USE64BITINT DYNAMIC_ARCH NO_AFFINITY SkylakeX SINGLE_THREADED
        Core in use  :  SkylakeX
   Copyright (c) 2011-2014, The OpenBLAS Project


Your calculation utilizes the atom-pairwise dispersion correction
with the Becke-Johnson damping scheme (D3BJ)
Cite in your paper:
S.Grimme, S.Ehrlich, L.Goerigk, J Comput Chem, (2011), 32, 1456–1465 
S.Grimme, J.Antony, S.Ehrlich and H.Krieg, J.Chem.Phys., 132, (2010), 154104 
   

================================================================================

----- Orbital basis set information -----
Your calculation utilizes the basis: aug-cc-pVTZ 
    H, B-Ne : Obtained from the ccRepo (grant-hill.group.shef.ac.uk/ccrepo) Feb. 2017
              R. A. Kendall, T. H. Dunning, Jr., R. J. Harrison, J. Chem. Phys. 96, 6796 (1992)
         He : Obtained from the ccRepo (grant-hill.group.shef.ac.uk/ccrepo) Feb. 2017
              D. E. Woon, T. H. Dunning, Jr., J. Chem. Phys. 100, 2975 (1994)
  Li-Be, Na : Obtained from the ccRepo (grant-hill.group.shef.ac.uk/ccrepo) Feb. 2017
              B. P. Prascher, D. E. Woon, K. A. Peterson, T. H. Dunning, Jr., A. K. Wilson, Theor. Chem. Acc. 128, 69 (2011)
         Mg : Obtained from the Peterson Research Group Website (tyr0.chem.wsu.edu/~kipeters) Feb. 2017
              B. P. Prascher, D. E. Woon, K. A. Peterson, T. H. Dunning, Jr., A. K. Wilson, Theor. Chem. Acc. 128, 69 (2011)
      Al-Ar : Obtained from the ccRepo (grant-hill.group.shef.ac.uk/ccrepo) Feb. 2017
              D. E. Woon, T. H. Dunning, Jr., J. Chem. Phys. 98, 1358 (1993)
      Sc-Zn : Obtained from the ccRepo (grant-hill.group.shef.ac.uk/ccrepo) Feb. 2017
              N. B. Balabanov, K. A. Peterson, J. Chem. Phys. 123, 064107 (2005)
              N. B. Balabanov, K. A. Peterson, J. Chem. Phys. 125, 074110 (2006)
      Ga-Kr : Obtained from the ccRepo (grant-hill.group.shef.ac.uk/ccrepo) Feb. 2017
              A. K. Wilson, D. E. Woon, K. A. Peterson, T. H. Dunning, Jr., J. Chem. Phys. 110, 7667 (1999)
     Ag, Au : Obtained from the Peterson Research Group Website (tyr0.chem.wsu.edu/~kipeters) Feb. 2017
              K. A. Peterson, C. Puzzarini, Theor. Chem. Acc. 114, 283 (2005)

----- AuxJ basis set information -----
Your calculation utilizes the auxiliary basis: def2/J
   F. Weigend, Phys. Chem. Chem. Phys. 8, 1057 (2006).

----- AuxC basis set information -----
Your calculation utilizes the auxiliary basis: aug-cc-pVTZ/C 
  H-He, B-F, Al-Ar, Ga-Kr : Obtained from the EMSL Basis Set Exchange (bse.pnl.gov) Feb. 2017
                            F. Weigend, A. Kohn, C. Hattig, J. Chem. Phys. 116, 3175 (2002)
                   Be, Mg : Obtained from the TURBOMOLE 7.0 basis set library
                            C. Haettig, Phys. Chem. Chem. Phys. 7, 59 (2005)
                       Ne : Obtained from the EMSL Basis Set Exchange (bse.pnl.gov) Feb. 2017
                            C. Haettig, Phys. Chem. Chem. Phys. 7, 59 (2005)
                            F. Weigend, A. Kohn, C. Hattig, J. Chem. Phys. 116, 3175 (2002)
                    Sc-Zn : Obtained from the EMSL Basis Set Exchange (bse.pnl.gov) Feb. 2017
                            J. G. Hill, J. A. Platts, J. Chem. Phys. 128, 044104 (2008)

================================================================================
                                        WARNINGS
                       Please study these warnings very carefully!
================================================================================


WARNING: No MP2 level density has been requested!
         To caclulate MP2 level properties use
         %mp2 Density relaxed end
         or
         %mp2 Density unrelaxed end
         Otherwise for double-hybrid DFT only the energy is correct!

WARNING: There are different parametrizations of Gershom Martin's DSD-DFs
         for use with and without D3(BJ)!
         You are using the D3(BJ) parametrized version,
         consistent with the GMTKN55 benchmark (L. Goerigk et al., PCCP 2017, 19, 32184)

WARNING: The frozen-core approximation is turned on by default for 
         the MP2 part of double-hybrid DFT.

INFO   : the flag for use of the SHARK integral package has been found!

================================================================================
                                       INPUT FILE
================================================================================
NAME = HA.36.avtz.com
|  1> !PAL8
|  2> !RI-DSD-PBEP86 D3BJ aug-cc-pVTZ aug-cc-pVTZ/C TightSCF
|  3> %maxcore 3000
|  4> 
|  5> 
|  6> * xyz 0 1
|  7> C -2.0455768364  1.411306869 -1.3366871227
|  8> C -2.6027016649  0.1621955127 -1.0499035534
|  9> Cl -4.0732446315 -0.0048733728 -0.1357859598
| 10> C -1.9848137135 -0.9941122146 -1.5132763461
| 11> H -2.4249727063 -1.9593380075 -1.285197015
| 12> C -0.8119448795 -0.9039224784 -2.2578736181
| 13> C -0.2521938184  0.3386938309 -2.5574977907
| 14> C -0.8750670509  1.4947203594 -2.0862340363
| 15> S -2.7432775383  2.9590665784 -0.7335301481
| 16> O -2.8960771813  2.8421897563  0.7010781634
| 17> O -1.9621892431  4.0113195796 -1.3559678741
| 18> N -4.2681362144  3.097536254 -1.363306221
| 19> H -4.9179638557  2.3970674515 -1.0161473142
| 20> H -4.2765678105  3.2000564832 -2.374324688
| 21> H -0.4567803347  2.4767126326 -2.2899021184
| 22> C  1.0660274522  0.41974797 -3.326139152
| 23> N  1.1800085837  1.6420693555 -4.0928314303
| 24> C  2.2704733544  0.5396852446 -2.3998291024
| 25> C  2.2885674023  2.4162233084 -3.8023244088
| 26> C  2.9790664891  1.6956748706 -2.6924269029
| 27> O  2.5936564365  3.4570654181 -4.3399683098
| 28> C  2.6953707884 -0.3325207078 -1.4106386707
| 29> C  3.860032896 -0.0007300521 -0.714012142
| 30> C  4.5714187691  1.1688829081 -1.0059935676
| 31> C  4.1368424773  2.0366759888 -2.0079243987
| 32> O  1.261419033 -0.7442549048 -4.1043509465
| 33> H -0.3263215959 -1.8089893187 -2.6095033813
| 34> H  0.5016409965  1.9407885939 -4.7818195325
| 35> H  2.1460490209 -1.2417556548 -1.1827029277
| 36> H  4.2196255889 -0.6605736284  0.069883896
| 37> H  5.4706611961  1.4005091605 -0.4435543431
| 38> H  4.6733009319  2.9481940191 -2.253573425
| 39> H  0.5666746587 -0.7924358054 -4.7800966118
| 40> *
| 41> 
| 42>                          ****END OF INPUT****
================================================================================

                       ****************************
                       * Single Point Calculation *
                       ****************************

---------------------------------
CARTESIAN COORDINATES (ANGSTROEM)
---------------------------------
  C     -2.045577    1.411307   -1.336687
  C     -2.602702    0.162196   -1.049904
  Cl    -4.073245   -0.004873   -0.135786
  C     -1.984814   -0.994112   -1.513276
  H     -2.424973   -1.959338   -1.285197
  C     -0.811945   -0.903922   -2.257874
  C     -0.252194    0.338694   -2.557498
  C     -0.875067    1.494720   -2.086234
  S     -2.743278    2.959067   -0.733530
  O     -2.896077    2.842190    0.701078
  O     -1.962189    4.011320   -1.355968
  N     -4.268136    3.097536   -1.363306
  H     -4.917964    2.397067   -1.016147
  H     -4.276568    3.200056   -2.374325
  H     -0.456780    2.476713   -2.289902
  C      1.066027    0.419748   -3.326139
  N      1.180009    1.642069   -4.092831
  C      2.270473    0.539685   -2.399829
  C      2.288567    2.416223   -3.802324
  C      2.979066    1.695675   -2.692427
  O      2.593656    3.457065   -4.339968
  C      2.695371   -0.332521   -1.410639
  C      3.860033   -0.000730   -0.714012
  C      4.571419    1.168883   -1.005994
  C      4.136842    2.036676   -2.007924
  O      1.261419   -0.744255   -4.104351
  H     -0.326322   -1.808989   -2.609503
  H      0.501641    1.940789   -4.781820
  H      2.146049   -1.241756   -1.182703
  H      4.219626   -0.660574    0.069884
  H      5.470661    1.400509   -0.443554
  H      4.673301    2.948194   -2.253573
  H      0.566675   -0.792436   -4.780097

----------------------------
CARTESIAN COORDINATES (A.U.)
----------------------------
  NO LB      ZA    FRAG     MASS         X           Y           Z
   0 C     6.0000    0    12.011   -3.865580    2.666983   -2.525973
   1 C     6.0000    0    12.011   -4.918393    0.306505   -1.984030
   2 Cl   17.0000    0    35.453   -7.697317   -0.009209   -0.256598
   3 C     6.0000    0    12.011   -3.750754   -1.878600   -2.859678
   4 H     1.0000    0     1.008   -4.582534   -3.702612   -2.428670
   5 C     6.0000    0    12.011   -1.534353   -1.708166   -4.266763
   6 C     6.0000    0    12.011   -0.476577    0.640039   -4.832970
   7 C     6.0000    0    12.011   -1.653637    2.824612   -3.942411
   8 S    16.0000    0    32.060   -5.184043    5.591825   -1.386171
   9 O     8.0000    0    15.999   -5.472793    5.370960    1.324846
  10 O     8.0000    0    15.999   -3.708000    7.580295   -2.562408
  11 N     7.0000    0    14.007   -8.065609    5.853495   -2.576275
  12 H     1.0000    0     1.008   -9.293605    4.529801   -1.920240
  13 H     1.0000    0     1.008   -8.081542    6.047230   -4.486823
  14 H     1.0000    0     1.008   -0.863190    4.680309   -4.327288
  15 C     6.0000    0    12.011    2.014500    0.793209   -6.285492
  16 N     7.0000    0    14.007    2.229893    3.103061   -7.734331
  17 C     6.0000    0    12.011    4.290573    1.019857   -4.535020
  18 C     6.0000    0    12.011    4.324766    4.566000   -7.185352
  19 C     6.0000    0    12.011    5.629620    3.204361   -5.087949
  20 O     8.0000    0    15.999    4.901300    6.532907   -8.201352
  21 C     6.0000    0    12.011    5.093513   -0.628373   -2.665721
  22 C     6.0000    0    12.011    7.294405   -0.001380   -1.349287
  23 C     6.0000    0    12.011    8.638730    2.208869   -1.901052
  24 C     6.0000    0    12.011    7.817499    3.848760   -3.794427
  25 O     8.0000    0    15.999    2.383737   -1.406438   -7.756099
  26 H     1.0000    0     1.008   -0.616658   -3.418494   -4.931247
  27 H     1.0000    0     1.008    0.947964    3.667559   -9.036329
  28 H     1.0000    0     1.008    4.055445   -2.346578   -2.234985
  29 H     1.0000    0     1.008    7.973937   -1.248303    0.132061
  30 H     1.0000    0     1.008   10.338051    2.646579   -0.838196
  31 H     1.0000    0     1.008    8.831259    5.571279   -4.258637
  32 H     1.0000    0     1.008    1.070860   -1.497487   -9.033073

--------------------------------
INTERNAL COORDINATES (ANGSTROEM)
--------------------------------
 C      0   0   0     0.000000000000     0.00000000     0.00000000
 C      1   0   0     1.397466303919     0.00000000     0.00000000
 Cl     2   1   0     1.739545803952   122.05300946     0.00000000
 C      2   1   3     1.390520559256   119.85118760   179.28817411
 H      4   2   1     1.085090296472   119.30188767   179.98639366
 C      4   2   1     1.392185543580   119.91491294     0.17273979
 C      6   4   2     1.395417925694   120.69531122   359.39245266
 C      1   2   3     1.392433676704   119.94326952   180.78159983
 S      1   2   3     1.801706059124   123.00915452     2.81798984
 O      9   1   2     1.447449111323   107.65674346    52.82059149
 O      9   1   2     1.450780488627   105.72104445   185.58663416
 N      9   1   2     1.655592261137   107.52792500   298.24558543
 H     12   9   1     1.016588320435   113.65423184    66.31333263
 H     12   9   1     1.016238077334   113.23595895   294.40142669
 H      8   1   2     1.086624723279   118.59537635   180.45842547
 C      7   6   4     1.528099026251   120.08474218   177.47452347
 N     16   7   6     1.447369447444   112.28280149   152.05233260
 C     16   7   6     1.524180169519   112.34405705   265.26995908
 C     17  16   7     1.382971918235   115.12473389   122.85614930
 C     18  16   7     1.387093983413   109.94174027   237.95413844
 O     19  17  16     1.210575309676   126.15780364   178.33749776
 C     18  16   7     1.385560811725   128.80568548    59.46453988
 C     22  18  16     1.397072433547   117.52497510   178.67617443
 C     23  22  18     1.399756225208   121.20532592   359.93854985
 C     20  18  16     1.387541235323   121.80337742   181.01474548
 O     16   7   6     1.413751802648   110.63643470    24.60795760
 H      6   4   2     1.085642413207   119.74030000   179.36916139
 H     17  16   7     1.011988325885   123.85809901   304.15440517
 H     22  18  16     1.086470108209   121.43541657   358.69924265
 H     23  22  18     1.085906740178   119.45253040   179.80846103
 H     24  23  22     1.085645220398   119.41745509   179.74085555
 H     25  20  18     1.085815931545   120.46096518   180.13014216
 H     26  16   7     0.970372788662   108.98113015    64.23956909

---------------------------
INTERNAL COORDINATES (A.U.)
---------------------------
 C      0   0   0     0.000000000000     0.00000000     0.00000000
 C      1   0   0     2.640828595790     0.00000000     0.00000000
 Cl     2   1   0     3.287265166882   122.05300946     0.00000000
 C      2   1   3     2.627703040581   119.85118760   179.28817411
 H      4   2   1     2.050523490907   119.30188767   179.98639366
 C      4   2   1     2.630849404971   119.91491294     0.17273979
 C      6   4   2     2.636957721925   120.69531122   359.39245266
 C      1   2   3     2.631318308619   119.94326952   180.78159983
 S      1   2   3     3.404731025570   123.00915452     2.81798984
 O      9   1   2     2.735282413188   107.65674346    52.82059149
 O      9   1   2     2.741577803942   105.72104445   185.58663416
 N      9   1   2     3.128615962988   107.52792500   298.24558543
 H     12   9   1     1.921073516564   113.65423184    66.31333263
 H     12   9   1     1.920411653024   113.23595895   294.40142669
 H      8   1   2     2.053423137344   118.59537635   180.45842547
 C      7   6   4     2.887688665126   120.08474218   177.47452347
 N     16   7   6     2.735131870274   112.28280149   152.05233260
 C     16   7   6     2.880283099144   112.34405705   265.26995908
 C     17  16   7     2.613438176368   115.12473389   122.85614930
 C     18  16   7     2.621227750661   109.94174027   237.95413844
 O     19  17  16     2.287655799774   126.15780364   178.33749776
 C     18  16   7     2.618330476054   128.80568548    59.46453988
 C     22  18  16     2.640084288655   117.52497510   178.67617443
 C     23  22  18     2.645155919895   121.20532592   359.93854985
 C     20  18  16     2.622072934284   121.80337742   181.01474548
 O     16   7   6     2.671603728341   110.63643470    24.60795760
 H      6   4   2     2.051566840330   119.74030000   179.36916139
 H     17  16   7     1.912380786648   123.85809901   304.15440517
 H     22  18  16     2.053130957207   121.43541657   358.69924265
 H     23  22  18     2.052066345915   119.45253040   179.80846103
 H     24  23  22     2.051572145154   119.41745509   179.74085555
 H     25  20  18     2.051894742468   120.46096518   180.13014216
 H     26  16   7     1.833738818381   108.98113015    64.23956909

---------------------
BASIS SET INFORMATION
---------------------
There are 6 groups of distinct atoms

 Group   1 Type C   : 19s6p3d2f contracted to 5s4p3d2f pattern {88111/3111/111/11}
 Group   2 Type Cl  : 42s17p3d2f contracted to 6s5p3d2f pattern {131313111/77111/111/11}
 Group   3 Type H   : 6s3p2d contracted to 4s3p2d pattern {3111/111/11}
 Group   4 Type S   : 42s17p3d2f contracted to 6s5p3d2f pattern {131313111/77111/111/11}
 Group   5 Type O   : 19s6p3d2f contracted to 5s4p3d2f pattern {88111/3111/111/11}
 Group   6 Type N   : 19s6p3d2f contracted to 5s4p3d2f pattern {88111/3111/111/11}

Atom   0C    basis set group =>   1
Atom   1C    basis set group =>   1
Atom   2Cl   basis set group =>   2
Atom   3C    basis set group =>   1
Atom   4H    basis set group =>   3
Atom   5C    basis set group =>   1
Atom   6C    basis set group =>   1
Atom   7C    basis set group =>   1
Atom   8S    basis set group =>   4
Atom   9O    basis set group =>   5
Atom  10O    basis set group =>   5
Atom  11N    basis set group =>   6
Atom  12H    basis set group =>   3
Atom  13H    basis set group =>   3
Atom  14H    basis set group =>   3
Atom  15C    basis set group =>   1
Atom  16N    basis set group =>   6
Atom  17C    basis set group =>   1
Atom  18C    basis set group =>   1
Atom  19C    basis set group =>   1
Atom  20O    basis set group =>   5
Atom  21C    basis set group =>   1
Atom  22C    basis set group =>   1
Atom  23C    basis set group =>   1
Atom  24C    basis set group =>   1
Atom  25O    basis set group =>   5
Atom  26H    basis set group =>   3
Atom  27H    basis set group =>   3
Atom  28H    basis set group =>   3
Atom  29H    basis set group =>   3
Atom  30H    basis set group =>   3
Atom  31H    basis set group =>   3
Atom  32H    basis set group =>   3
---------------------------------
AUXILIARY/J BASIS SET INFORMATION
---------------------------------
There are 6 groups of distinct atoms

 Group   1 Type C   : 12s5p4d2f1g contracted to 6s4p3d1f1g pattern {711111/2111/211/2/1}
 Group   2 Type Cl  : 14s5p5d2f1g contracted to 8s4p3d1f1g pattern {71111111/2111/311/2/1}
 Group   3 Type H   : 5s2p1d contracted to 3s1p1d pattern {311/2/1}
 Group   4 Type S   : 14s5p5d2f1g contracted to 8s4p3d1f1g pattern {71111111/2111/311/2/1}
 Group   5 Type O   : 12s5p4d2f1g contracted to 6s4p3d1f1g pattern {711111/2111/211/2/1}
 Group   6 Type N   : 12s5p4d2f1g contracted to 6s4p3d1f1g pattern {711111/2111/211/2/1}

Atom   0C    basis set group =>   1
Atom   1C    basis set group =>   1
Atom   2Cl   basis set group =>   2
Atom   3C    basis set group =>   1
Atom   4H    basis set group =>   3
Atom   5C    basis set group =>   1
Atom   6C    basis set group =>   1
Atom   7C    basis set group =>   1
Atom   8S    basis set group =>   4
Atom   9O    basis set group =>   5
Atom  10O    basis set group =>   5
Atom  11N    basis set group =>   6
Atom  12H    basis set group =>   3
Atom  13H    basis set group =>   3
Atom  14H    basis set group =>   3
Atom  15C    basis set group =>   1
Atom  16N    basis set group =>   6
Atom  17C    basis set group =>   1
Atom  18C    basis set group =>   1
Atom  19C    basis set group =>   1
Atom  20O    basis set group =>   5
Atom  21C    basis set group =>   1
Atom  22C    basis set group =>   1
Atom  23C    basis set group =>   1
Atom  24C    basis set group =>   1
Atom  25O    basis set group =>   5
Atom  26H    basis set group =>   3
Atom  27H    basis set group =>   3
Atom  28H    basis set group =>   3
Atom  29H    basis set group =>   3
Atom  30H    basis set group =>   3
Atom  31H    basis set group =>   3
Atom  32H    basis set group =>   3
---------------------------------
AUXILIARY/C BASIS SET INFORMATION
---------------------------------
There are 6 groups of distinct atoms

 Group   1 Type C   : 9s7p6d4f2g contracted to 9s7p6d4f2g pattern {111111111/1111111/111111/1111/11}
 Group   2 Type Cl  : 11s9p8d6f3g contracted to 11s9p8d6f3g pattern {11111111111/111111111/11111111/111111/111}
 Group   3 Type H   : 5s4p3d2f contracted to 5s4p3d2f pattern {11111/1111/111/11}
 Group   4 Type S   : 11s9p8d6f3g contracted to 11s9p8d6f3g pattern {11111111111/111111111/11111111/111111/111}
 Group   5 Type O   : 9s7p6d4f2g contracted to 9s7p6d4f2g pattern {111111111/1111111/111111/1111/11}
 Group   6 Type N   : 9s7p6d4f2g contracted to 9s7p6d4f2g pattern {111111111/1111111/111111/1111/11}

Atom   0C    basis set group =>   1
Atom   1C    basis set group =>   1
Atom   2Cl   basis set group =>   2
Atom   3C    basis set group =>   1
Atom   4H    basis set group =>   3
Atom   5C    basis set group =>   1
Atom   6C    basis set group =>   1
Atom   7C    basis set group =>   1
Atom   8S    basis set group =>   4
Atom   9O    basis set group =>   5
Atom  10O    basis set group =>   5
Atom  11N    basis set group =>   6
Atom  12H    basis set group =>   3
Atom  13H    basis set group =>   3
Atom  14H    basis set group =>   3
Atom  15C    basis set group =>   1
Atom  16N    basis set group =>   6
Atom  17C    basis set group =>   1
Atom  18C    basis set group =>   1
Atom  19C    basis set group =>   1
Atom  20O    basis set group =>   5
Atom  21C    basis set group =>   1
Atom  22C    basis set group =>   1
Atom  23C    basis set group =>   1
Atom  24C    basis set group =>   1
Atom  25O    basis set group =>   5
Atom  26H    basis set group =>   3
Atom  27H    basis set group =>   3
Atom  28H    basis set group =>   3
Atom  29H    basis set group =>   3
Atom  30H    basis set group =>   3
Atom  31H    basis set group =>   3
Atom  32H    basis set group =>   3


           ************************************************************
           *        Program running with 8 parallel MPI-processes     *
           *              working on a common directory               *
           ************************************************************
------------------------------------------------------------------------------
                           ORCA GTO INTEGRAL CALCULATION
                           -- RI-GTO INTEGRALS CHOSEN --
------------------------------------------------------------------------------
------------------------------------------------------------------------------
                   ___                                                        
                  /   \      - P O W E R E D   B Y -                         
                 /     \                                                     
                 |  |  |   _    _      __       _____    __    __             
                 |  |  |  | |  | |    /  \     |  _  \  |  |  /  |          
                  \  \/   | |  | |   /    \    | | | |  |  | /  /          
                 / \  \   | |__| |  /  /\  \   | |_| |  |  |/  /          
                |  |  |   |  __  | /  /__\  \  |    /   |      \           
                |  |  |   | |  | | |   __   |  |    \   |  |\   \          
                \     /   | |  | | |  |  |  |  | |\  \  |  | \   \       
                 \___/    |_|  |_| |__|  |__|  |_| \__\ |__|  \__/        
                                                                              
                      - O R C A' S   B I G   F R I E N D -                    
                                      &                                       
                       - I N T E G R A L  F E E D E R -                       
                                                                              
 v1 FN, 2020, v2 2021                                                         
------------------------------------------------------------------------------


Reading SHARK input file HA.36.avtz.SHARKINP.tmp ... ok
----------------------
SHARK INTEGRAL PACKAGE
----------------------

Number of atoms                             ...     33
Number of basis functions                   ...   1443
Number of shells                            ...    561
Maximum angular momentum                    ...      3
Integral batch strategy                     ... SHARK/LIBINT Hybrid
RI-J (if used) integral strategy            ... SPLIT-RIJ (Revised 2003 algorithm where possible)
Printlevel                                  ...      1
Contraction scheme used                     ... PARTIAL GENERAL contraction
Coulomb Range Separation                    ... NOT USED
Exchange Range Separation                   ... NOT USED
Finite Nucleus Model                        ... NOT USED
Auxiliary Coulomb fitting basis             ... AVAILABLE
   # of basis functions in Aux-J            ...   1203
   # of shells in Aux-J                     ...    389
   Maximum angular momentum in Aux-J        ...      4
Auxiliary J/K fitting basis                 ... NOT available
Auxiliary Correlation fitting basis         ... AVAILABLE
   # of basis functions in Aux-C            ...   2920
   # of shells in Aux-C                     ...    788
   Maximum angular momentum in Aux-C        ...      4
Auxiliary 'external' fitting basis          ... NOT available
Integral threshold                          ...     2.500000e-11
Primitive cut-off                           ...     2.500000e-12
Primitive pair pre-selection threshold      ...     2.500000e-12

Calculating pre-screening integrals         ... done (  0.1 sec) Dimension = 561
Calculating pre-screening integrals (ORCA)  ... done (  0.3 sec) Dimension = 411
Organizing shell pair data                  ... done (  1.1 sec)
Shell pair information
Total number of shell pairs                 ...    157641
Shell pairs after pre-screening             ...    104415
Total number of primitive shell pairs       ...    194469
Primitive shell pairs kept                  ...    118790
          la=0 lb=0:  22540 shell pairs
          la=1 lb=0:  27174 shell pairs
          la=1 lb=1:   7219 shell pairs
          la=2 lb=0:  17702 shell pairs
          la=2 lb=1:   9448 shell pairs
          la=2 lb=2:   3209 shell pairs
          la=3 lb=0:   8536 shell pairs
          la=3 lb=1:   4654 shell pairs
          la=3 lb=2:   3135 shell pairs
          la=3 lb=3:    798 shell pairs

Calculating one electron integrals          ... done (  0.2 sec)
Calculating RI/J V-Matrix + Cholesky decomp.... done (  0.1 sec)
Calculating RI/C V-Matrix + Cholesky decomp.... done (  0.4 sec)
Calculating Nuclear repulsion               ... done (  0.0 sec) ENN=   2107.648313337597 Eh

SHARK setup successfully completed in   3.4 seconds

Maximum memory used throughout the entire GTOINT-calculation: 137.7 MB


           ************************************************************
           *        Program running with 8 parallel MPI-processes     *
           *              working on a common directory               *
           ************************************************************
-------------------------------------------------------------------------------
                                 ORCA SCF
-------------------------------------------------------------------------------

------------
SCF SETTINGS
------------
Hamiltonian:
 Density Functional     Method          .... DFT(GTOs)
 Exchange Functional    Exchange        .... PBE
   PBE kappa parameter   XKappa         ....  0.804000
   PBE mue parameter    XMuePBE         ....  0.219520
 Correlation Functional Correlation     .... P86
 LDA part of GGA corr.  LDAOpt          .... VWN-5
 Gradients option       PostSCFGGA      .... off
 Hybrid DFT is turned on
   Fraction HF Exchange ScalHFX         ....  0.700000
   Scaling of DF-GGA-X  ScalDFX         ....  0.300000
   Scaling of DF-GGA-C  ScalDFC         ....  0.430000
   Scaling of DF-LDA-C  ScalLDAC        ....  0.430000
   Perturbative correction              ....  1.000000
   Density functional embedding theory  .... OFF
   NL short-range parameter             .... 14.200000
 RI-approximation to the Coulomb term is turned on
   Number of AuxJ basis functions       .... 1203
   RIJ-COSX (HFX calculated with COS-X)).... on


General Settings:
 Integral files         IntName         .... HA.36.avtz
 Hartree-Fock type      HFTyp           .... RHF
 Total Charge           Charge          ....    0
 Multiplicity           Mult            ....    1
 Number of Electrons    NEL             ....  174
 Basis Dimension        Dim             .... 1273
 Nuclear Repulsion      ENuc            ....   2107.6483133376 Eh

Convergence Acceleration:
 DIIS                   CNVDIIS         .... on
   Start iteration      DIISMaxIt       ....    12
   Startup error        DIISStart       ....  0.200000
   # of expansion vecs  DIISMaxEq       ....     5
   Bias factor          DIISBfac        ....   1.050
   Max. coefficient     DIISMaxC        ....  10.000
 Trust-Rad. Augm. Hess. CNVTRAH         .... auto
   Auto Start mean grad. ratio tolernc. ....  1.125000
   Auto Start start iteration           ....    20
   Auto Start num. interpolation iter.  ....    10
   Max. Number of Micro iterations      ....    16
   Max. Number of Macro iterations      .... Maxiter - #DIIS iter
   Number of Davidson start vectors     ....     2
   Converg. threshold I  (grad. norm)   ....   1.000e-05
   Converg. threshold II (energy diff.) ....   1.000e-08
   Grad. Scal. Fac. for Micro threshold ....   0.100
   Minimum threshold for Micro iter.    ....   0.010
   NR start threshold (gradient norm)   ....   0.001
   Initial trust radius                 ....   0.400
   Minimum AH scaling param. (alpha)    ....   1.000
   Maximum AH scaling param. (alpha)    .... 1000.000
   Orbital update algorithm             .... Taylor
   White noise on init. David. guess    .... on
   Maximum white noise                  ....   0.010
   Quad. conv. algorithm                .... NR
 SOSCF                  CNVSOSCF        .... on
   Start iteration      SOSCFMaxIt      ....   150
   Startup grad/error   SOSCFStart      ....  0.003300
 Level Shifting         CNVShift        .... on
   Level shift para.    LevelShift      ....    0.2500
   Turn off err/grad.   ShiftErr        ....    0.0010
 Zerner damping         CNVZerner       .... off
 Static damping         CNVDamp         .... on
   Fraction old density DampFac         ....    0.7000
   Max. Damping (<1)    DampMax         ....    0.9800
   Min. Damping (>=0)   DampMin         ....    0.0000
   Turn off err/grad.   DampErr         ....    0.1000
 Fernandez-Rico         CNVRico         .... off

SCF Procedure:
 Maximum # iterations   MaxIter         ....   125
 SCF integral mode      SCFMode         .... Direct
   Integral package                     .... SHARK and LIBINT hybrid scheme
 Reset frequency        DirectResetFreq ....    20
 Integral Threshold     Thresh          ....  2.500e-11 Eh
 Primitive CutOff       TCut            ....  2.500e-12 Eh

Convergence Tolerance:
 Convergence Check Mode ConvCheckMode   .... Total+1el-Energy
 Convergence forced     ConvForced      .... 0
 Energy Change          TolE            ....  1.000e-08 Eh
 1-El. energy change                    ....  1.000e-05 Eh
 Orbital Gradient       TolG            ....  1.000e-05
 Orbital Rotation angle TolX            ....  1.000e-05
 DIIS Error             TolErr          ....  5.000e-07


Diagonalization of the overlap matrix:
Smallest eigenvalue                        ... 2.475e-07
Time for diagonalization                   ...    0.208 sec
Threshold for overlap eigenvalues          ... 1.000e-08
Number of eigenvalues below threshold      ... 0
Time for construction of square roots      ...    0.140 sec
Total time needed                          ...    0.356 sec

Time for model grid setup =    0.398 sec

------------------------------
INITIAL GUESS: MODEL POTENTIAL
------------------------------
Loading Hartree-Fock densities                     ... done
Calculating cut-offs                               ... done
Initializing the effective Hamiltonian             ... done
Setting up the integral package (SHARK)            ... done
Starting the Coulomb interaction                   ... done (   1.5 sec)
Reading the grid                                   ... done
Mapping shells                                     ... done
Starting the XC term evaluation                    ... done (   1.4 sec)
  promolecular density results
     # of electrons  =    173.985582786
     EX              =   -173.009027541
     EC              =     -0.037834005
     EX+EC           =   -173.046861545
Transforming the Hamiltonian                       ... done (   0.1 sec)
Diagonalizing the Hamiltonian                      ... done (   0.2 sec)
Back transforming the eigenvectors                 ... done (   0.0 sec)
Now organizing SCF variables                       ... done
                      ------------------
                      INITIAL GUESS DONE (   3.7 sec)
                      ------------------
-------------------
DFT GRID GENERATION
-------------------

General Integration Accuracy     IntAcc      ... 4.388
Radial Grid Type                 RadialGrid  ... OptM3 with GC (2021)
Angular Grid (max. ang.)         AngularGrid ... 4 (Lebedev-302)
Angular grid pruning method      GridPruning ... 4 (adaptive)
Weight generation scheme         WeightScheme... Becke
Basis function cutoff            BFCut       ... 1.0000e-11
Integration weight cutoff        WCut        ... 1.0000e-14
Angular grids for H and He will be reduced by one unit
Partially contracted basis set               ... off
Rotationally invariant grid construction     ... off

Total number of grid points                  ...   176828
Total number of batches                      ...     2779
Average number of points per batch           ...       63
Average number of grid points per atom       ...     5358
Time for grid setup =    1.362 sec

--------------------
COSX GRID GENERATION
--------------------

GRIDX 1
-------
General Integration Accuracy     IntAcc      ... 3.816
Radial Grid Type                 RadialGrid  ... OptM3 with GC (2021)
Angular Grid (max. ang.)         AngularGrid ... 1 (Lebedev-50)
Angular grid pruning method      GridPruning ... 4 (adaptive)
Weight generation scheme         WeightScheme... Becke
Basis function cutoff            BFCut       ... 1.0000e-11
Integration weight cutoff        WCut        ... 1.0000e-14
Angular grids for H and He will be reduced by one unit
Partially contracted basis set               ... on
Rotationally invariant grid construction     ... off

Total number of grid points                  ...    21999
Total number of batches                      ...      361
Average number of points per batch           ...       60
Average number of grid points per atom       ...      667
UseSFitting                                  ... on

GRIDX 2
-------
General Integration Accuracy     IntAcc      ... 4.020
Radial Grid Type                 RadialGrid  ... OptM3 with GC (2021)
Angular Grid (max. ang.)         AngularGrid ... 2 (Lebedev-110)
Angular grid pruning method      GridPruning ... 4 (adaptive)
Weight generation scheme         WeightScheme... Becke
Basis function cutoff            BFCut       ... 1.0000e-11
Integration weight cutoff        WCut        ... 1.0000e-14
Angular grids for H and He will be reduced by one unit
Partially contracted basis set               ... on
Rotationally invariant grid construction     ... off

Total number of grid points                  ...    53671
Total number of batches                      ...      855
Average number of points per batch           ...       62
Average number of grid points per atom       ...     1626
UseSFitting                                  ... on

GRIDX 3
-------
General Integration Accuracy     IntAcc      ... 4.338
Radial Grid Type                 RadialGrid  ... OptM3 with GC (2021)
Angular Grid (max. ang.)         AngularGrid ... 3 (Lebedev-194)
Angular grid pruning method      GridPruning ... 4 (adaptive)
Weight generation scheme         WeightScheme... Becke
Basis function cutoff            BFCut       ... 1.0000e-11
Integration weight cutoff        WCut        ... 1.0000e-14
Angular grids for H and He will be reduced by one unit
Partially contracted basis set               ... on
Rotationally invariant grid construction     ... off

Total number of grid points                  ...   119075
Total number of batches                      ...     1881
Average number of points per batch           ...       63
Average number of grid points per atom       ...     3608
UseSFitting                                  ... on

Time for X-Grid setup             =    4.784 sec

 re-compute Schwartz prescreening matrix in partically contracted basis (1) ...done (   0.138 sec)
--------------
SCF ITERATIONS
--------------
ITER       Energy         Delta-E        Max-DP      RMS-DP      [F,P]     Damp
               ***  Starting incremental Fock matrix formation  ***
  0  -1804.3221523689   0.000000000000 1.44360550  0.00581986  0.2900459 0.7000
  1  -1804.5888535736  -0.266701204707 1.33516107  0.00511715  0.1453572 0.7000
                               ***Turning on DIIS***
  2  -1804.7214817980  -0.132628224453 3.45459505  0.01310892  0.0689390 0.0000
  3  -1804.9524782848  -0.230996486774 0.31073749  0.00183468  0.0644335 0.0000
  4  -1804.9822891301  -0.029810845272 0.17014147  0.00063246  0.0102374 0.0000
  5  -1804.9833525974  -0.001063467314 0.05852006  0.00028198  0.0059381 0.0000
                      *** Initiating the SOSCF procedure ***
                           *** Shutting down DIIS ***
                      *** Re-Reading the Fockian *** 
                      *** Removing any level shift *** 
ITER      Energy       Delta-E        Grad      Rot      Max-DP    RMS-DP
  6  -1804.98363155  -0.0002789484  0.000791  0.000791  0.076187  0.000313
               *** Restarting incremental Fock matrix formation ***
  7  -1804.98372572  -0.0000941772  0.000340  0.000849  0.412907  0.003429
  8  -1804.98374334  -0.0000176161  0.000205  0.000755  0.193916  0.000770
  9  -1804.98374499  -0.0000016536  0.000077  0.000086  0.303065  0.000642
 10  -1804.98374629  -0.0000012993  0.000017  0.000036  0.108860  0.000471
 11  -1804.98374647  -0.0000001769  0.000012  0.000020  0.101600  0.000354
 12  -1804.98374649  -0.0000000193  0.000004  0.000009  0.190374  0.000357
 13  -1804.98374651  -0.0000000196  0.000003  0.000008  0.431732  0.000527
                  ***Gradient check signals convergence***
              ***Rediagonalizing the Fockian in SOSCF/NRSCF***

               *****************************************************
               *                     SUCCESS                       *
               *           SCF CONVERGED AFTER  14 CYCLES          *
               *****************************************************

Old exchange energy                            =   -122.860780350 Eh
New exchange energy                            =   -122.860740696 Eh
Exchange energy change after final integration =      0.000039654 Eh
Total energy after final integration           =  -1804.983706976 Eh
Final COS-X integration done in                =    86.622 sec

----------------
TOTAL SCF ENERGY
----------------

Total Energy       :        -1804.98370698 Eh          -49116.10368 eV

Components:
Nuclear Repulsion  :         2107.64831334 Eh           57352.02633 eV
Electronic Energy  :        -3912.63202031 Eh         -106468.13001 eV
One Electron Energy:        -6668.57698637 Eh         -181461.20511 eV
Two Electron Energy:         2755.94496605 Eh           74993.07510 eV
Max COSX asymmetry :            0.00007829 Eh               0.00213 eV

Virial components:
Potential Energy   :        -3605.35682706 Eh          -98106.74691 eV
Kinetic Energy     :         1800.37312009 Eh           48990.64323 eV
Virial Ratio       :            2.00256091


DFT components:
N(Alpha)           :       87.000063339146 electrons
N(Beta)            :       87.000063339146 electrons
N(Total)           :      174.000126678293 electrons
E(X)               :      -52.456239475767 Eh       
E(C)               :       -2.920235205348 Eh       
E(XC)              :      -55.376474681115 Eh       
DFET-embed. en.    :        0.000000000000 Eh       

---------------
SCF CONVERGENCE
---------------

  Last Energy change         ...   -1.2171e-07  Tolerance :   1.0000e-08
  Last MAX-Density change    ...    8.8818e-15  Tolerance :   1.0000e-07
  Last RMS-Density change    ...    3.3819e-17  Tolerance :   5.0000e-09
  Last Orbital Gradient      ...    2.3512e-06  Tolerance :   1.0000e-05
  Last Orbital Rotation      ...    5.9343e-06  Tolerance :   1.0000e-05

             **** THE GBW FILE WAS UPDATED (HA.36.avtz.gbw) ****
             **** DENSITY HA.36.avtz.scfp WAS UPDATED ****
             **** ENERGY FILE WAS UPDATED (HA.36.avtz.en.tmp) ****
             **** THE GBW FILE WAS UPDATED (HA.36.avtz.gbw) ****
             **** DENSITY HA.36.avtz.scfp WAS UPDATED ****
----------------
ORBITAL ENERGIES
----------------

  NO   OCC          E(Eh)            E(eV) 
   0   2.0000    -103.643645     -2820.2870 
   1   2.0000     -91.052274     -2477.6583 
   2   2.0000     -20.062015      -545.9152 
   3   2.0000     -20.024724      -544.9004 
   4   2.0000     -20.022915      -544.8512 
   5   2.0000     -20.002903      -544.3067 
   6   2.0000     -15.145288      -412.1242 
   7   2.0000     -15.134624      -411.8340 
   8   2.0000     -10.973169      -298.5951 
   9   2.0000     -10.960608      -298.2533 
  10   2.0000     -10.946312      -297.8643 
  11   2.0000     -10.906257      -296.7743 
  12   2.0000     -10.886461      -296.2357 
  13   2.0000     -10.884430      -296.1804 
  14   2.0000     -10.883952      -296.1674 
  15   2.0000     -10.882838      -296.1371 
  16   2.0000     -10.869699      -295.7796 
  17   2.0000     -10.863013      -295.5976 
  18   2.0000     -10.861697      -295.5618 
  19   2.0000     -10.861604      -295.5593 
  20   2.0000     -10.858848      -295.4843 
  21   2.0000     -10.857387      -295.4445 
  22   2.0000     -10.191484      -277.3244 
  23   2.0000      -8.794704      -239.3161 
  24   2.0000      -7.764662      -211.2872 
  25   2.0000      -7.760097      -211.1630 
  26   2.0000      -7.759875      -211.1569 
  27   2.0000      -6.580912      -179.0757 
  28   2.0000      -6.579725      -179.0434 
  29   2.0000      -6.577890      -178.9935 
  30   2.0000      -1.348551       -36.6959 
  31   2.0000      -1.297910       -35.3179 
  32   2.0000      -1.270562       -34.5737 
  33   2.0000      -1.232741       -33.5446 
  34   2.0000      -1.156803       -31.4782 
  35   2.0000      -1.126571       -30.6555 
  36   2.0000      -1.115923       -30.3658 
  37   2.0000      -1.069716       -29.1085 
  38   2.0000      -1.058031       -28.7905 
  39   2.0000      -0.981432       -26.7061 
  40   2.0000      -0.967466       -26.3261 
  41   2.0000      -0.956495       -26.0275 
  42   2.0000      -0.943309       -25.6687 
  43   2.0000      -0.864343       -23.5200 
  44   2.0000      -0.838896       -22.8275 
  45   2.0000      -0.812345       -22.1050 
  46   2.0000      -0.788737       -21.4626 
  47   2.0000      -0.768711       -20.9177 
  48   2.0000      -0.745336       -20.2816 
  49   2.0000      -0.730479       -19.8773 
  50   2.0000      -0.698068       -18.9954 
  51   2.0000      -0.681810       -18.5530 
  52   2.0000      -0.670308       -18.2400 
  53   2.0000      -0.651870       -17.7383 
  54   2.0000      -0.638444       -17.3729 
  55   2.0000      -0.629805       -17.1379 
  56   2.0000      -0.624462       -16.9925 
  57   2.0000      -0.617000       -16.7894 
  58   2.0000      -0.615187       -16.7401 
  59   2.0000      -0.586859       -15.9692 
  60   2.0000      -0.577401       -15.7119 
  61   2.0000      -0.571646       -15.5553 
  62   2.0000      -0.569632       -15.5005 
  63   2.0000      -0.561518       -15.2797 
  64   2.0000      -0.557348       -15.1662 
  65   2.0000      -0.536431       -14.5970 
  66   2.0000      -0.532134       -14.4801 
  67   2.0000      -0.524309       -14.2672 
  68   2.0000      -0.503850       -13.7105 
  69   2.0000      -0.500114       -13.6088 
  70   2.0000      -0.484029       -13.1711 
  71   2.0000      -0.476085       -12.9549 
  72   2.0000      -0.467340       -12.7170 
  73   2.0000      -0.464770       -12.6470 
  74   2.0000      -0.452969       -12.3259 
  75   2.0000      -0.447686       -12.1821 
  76   2.0000      -0.446582       -12.1521 
  77   2.0000      -0.441524       -12.0145 
  78   2.0000      -0.436967       -11.8905 
  79   2.0000      -0.424230       -11.5439 
  80   2.0000      -0.410710       -11.1760 
  81   2.0000      -0.378095       -10.2885 
  82   2.0000      -0.375369       -10.2143 
  83   2.0000      -0.359528        -9.7832 
  84   2.0000      -0.348504        -9.4833 
  85   2.0000      -0.333983        -9.0881 
  86   2.0000      -0.324217        -8.8224 
  87   0.0000       0.001094         0.0298 
  88   0.0000       0.002814         0.0766 
  89   0.0000       0.010539         0.2868 
  90   0.0000       0.014307         0.3893 
  91   0.0000       0.019240         0.5235 
  92   0.0000       0.019444         0.5291 
  93   0.0000       0.025147         0.6843 
  94   0.0000       0.031246         0.8502 
  95   0.0000       0.037288         1.0146 
  96   0.0000       0.038295         1.0420 
  97   0.0000       0.041105         1.1185 
  98   0.0000       0.045433         1.2363 
  99   0.0000       0.052247         1.4217 
 100   0.0000       0.056207         1.5295 
 101   0.0000       0.057600         1.5674 
 102   0.0000       0.059179         1.6104 
 103   0.0000       0.065891         1.7930 
 104   0.0000       0.069447         1.8897 
 105   0.0000       0.073904         2.0110 
 106   0.0000       0.078686         2.1412 
 107   0.0000       0.081050         2.2055 
 108   0.0000       0.082343         2.2407 
 109   0.0000       0.084889         2.3099 
 110   0.0000       0.089897         2.4462 
 111   0.0000       0.092014         2.5038 
 112   0.0000       0.095948         2.6109 
 113   0.0000       0.097265         2.6467 
 114   0.0000       0.099970         2.7203 
 115   0.0000       0.102286         2.7833 
 116   0.0000       0.104318         2.8386 
 117   0.0000       0.106671         2.9027 
 118   0.0000       0.108331         2.9478 
 119   0.0000       0.112183         3.0527 
 120   0.0000       0.112438         3.0596 
 121   0.0000       0.115475         3.1422 
 122   0.0000       0.117484         3.1969 
 123   0.0000       0.121785         3.3139 
 124   0.0000       0.125820         3.4237 
 125   0.0000       0.126769         3.4496 
 126   0.0000       0.130922         3.5626 
 127   0.0000       0.132582         3.6077 
 128   0.0000       0.132858         3.6152 
 129   0.0000       0.134835         3.6690 
 130   0.0000       0.138922         3.7803 
 131   0.0000       0.139669         3.8006 
 132   0.0000       0.144919         3.9434 
 133   0.0000       0.147380         4.0104 
 134   0.0000       0.148291         4.0352 
 135   0.0000       0.151053         4.1104 
 136   0.0000       0.156134         4.2486 
 137   0.0000       0.158645         4.3170 
 138   0.0000       0.160275         4.3613 
 139   0.0000       0.165556         4.5050 
 140   0.0000       0.166791         4.5386 
 141   0.0000       0.168812         4.5936 
 142   0.0000       0.172279         4.6880 
 143   0.0000       0.173327         4.7165 
 144   0.0000       0.179925         4.8960 
 145   0.0000       0.182045         4.9537 
 146   0.0000       0.184155         5.0111 
 147   0.0000       0.185776         5.0552 
 148   0.0000       0.188867         5.1393 
 149   0.0000       0.192119         5.2278 
 150   0.0000       0.194989         5.3059 
 151   0.0000       0.197476         5.3736 
 152   0.0000       0.199510         5.4289 
 153   0.0000       0.202972         5.5231 
 154   0.0000       0.206124         5.6089 
 155   0.0000       0.209366         5.6971 
 156   0.0000       0.211520         5.7558 
 157   0.0000       0.213302         5.8042 
 158   0.0000       0.214448         5.8354 
 159   0.0000       0.219003         5.9594 
 160   0.0000       0.221354         6.0233 
 161   0.0000       0.223382         6.0785 
 162   0.0000       0.228161         6.2086 
 163   0.0000       0.229082         6.2336 
 164   0.0000       0.230754         6.2791 
 165   0.0000       0.232255         6.3200 
 166   0.0000       0.233298         6.3484 
 167   0.0000       0.234501         6.3811 
 168   0.0000       0.235530         6.4091 
 169   0.0000       0.239912         6.5283 
 170   0.0000       0.241850         6.5811 
 171   0.0000       0.245473         6.6797 
 172   0.0000       0.248948         6.7742 
 173   0.0000       0.249823         6.7980 
 174   0.0000       0.250096         6.8055 
 175   0.0000       0.251565         6.8454 
 176   0.0000       0.254822         6.9341 
 177   0.0000       0.257240         6.9999 
 178   0.0000       0.259204         7.0533 
 179   0.0000       0.261341         7.1115 
 180   0.0000       0.265451         7.2233 
 181   0.0000       0.267813         7.2876 
 182   0.0000       0.269928         7.3451 
 183   0.0000       0.274874         7.4797 
 184   0.0000       0.275821         7.5055 
 185   0.0000       0.278986         7.5916 
 186   0.0000       0.281525         7.6607 
 187   0.0000       0.285605         7.7717 
 188   0.0000       0.287580         7.8255 
 189   0.0000       0.290195         7.8966 
 190   0.0000       0.291465         7.9312 
 191   0.0000       0.293722         7.9926 
 192   0.0000       0.294933         8.0255 
 193   0.0000       0.297064         8.0835 
 194   0.0000       0.299006         8.1364 
 195   0.0000       0.304031         8.2731 
 196   0.0000       0.305773         8.3205 
 197   0.0000       0.311494         8.4762 
 198   0.0000       0.313426         8.5287 
 199   0.0000       0.315607         8.5881 
 200   0.0000       0.317597         8.6423 
 201   0.0000       0.321114         8.7380 
 202   0.0000       0.321897         8.7593 
 203   0.0000       0.324254         8.8234 
 204   0.0000       0.326101         8.8737 
 205   0.0000       0.331642         9.0244 
 206   0.0000       0.335889         9.1400 
 207   0.0000       0.338290         9.2053 
 208   0.0000       0.340207         9.2575 
 209   0.0000       0.344157         9.3650 
 210   0.0000       0.345962         9.4141 
 211   0.0000       0.348346         9.4790 
 212   0.0000       0.351489         9.5645 
 213   0.0000       0.354162         9.6372 
 214   0.0000       0.358686         9.7603 
 215   0.0000       0.358952         9.7676 
 216   0.0000       0.361554         9.8384 
 217   0.0000       0.363558         9.8929 
 218   0.0000       0.365203         9.9377 
 219   0.0000       0.368415        10.0251 
 220   0.0000       0.376780        10.2527 
 221   0.0000       0.378513        10.2999 
 222   0.0000       0.380667        10.3585 
 223   0.0000       0.383929        10.4472 
 224   0.0000       0.384577        10.4649 
 225   0.0000       0.389187        10.5903 
 226   0.0000       0.392730        10.6867 
 227   0.0000       0.396077        10.7778 
 228   0.0000       0.396373        10.7859 
 229   0.0000       0.401959        10.9379 
 230   0.0000       0.404540        11.0081 
 231   0.0000       0.408594        11.1184 
 232   0.0000       0.409516        11.1435 
 233   0.0000       0.412761        11.2318 
 234   0.0000       0.415312        11.3012 
 235   0.0000       0.420137        11.4325 
 236   0.0000       0.422825        11.5057 
 237   0.0000       0.427461        11.6318 
 238   0.0000       0.428484        11.6597 
 239   0.0000       0.431300        11.7363 
 240   0.0000       0.431636        11.7454 
 241   0.0000       0.436517        11.8782 
 242   0.0000       0.439533        11.9603 
 243   0.0000       0.441121        12.0035 
 244   0.0000       0.443958        12.0807 
 245   0.0000       0.447372        12.1736 
 246   0.0000       0.449570        12.2334 
 247   0.0000       0.450707        12.2644 
 248   0.0000       0.451947        12.2981 
 249   0.0000       0.455550        12.3962 
 250   0.0000       0.460122        12.5206 
 251   0.0000       0.462460        12.5842 
 252   0.0000       0.465569        12.6688 
 253   0.0000       0.467181        12.7126 
 254   0.0000       0.468641        12.7524 
 255   0.0000       0.472258        12.8508 
 256   0.0000       0.474466        12.9109 
 257   0.0000       0.476185        12.9576 
 258   0.0000       0.479353        13.0439 
 259   0.0000       0.480403        13.0724 
 260   0.0000       0.482407        13.1270 
 261   0.0000       0.484811        13.1924 
 262   0.0000       0.486659        13.2427 
 263   0.0000       0.489630        13.3235 
 264   0.0000       0.490520        13.3477 
 265   0.0000       0.492763        13.4088 
 266   0.0000       0.496915        13.5218 
 267   0.0000       0.498205        13.5568 
 268   0.0000       0.499411        13.5897 
 269   0.0000       0.504546        13.7294 
 270   0.0000       0.505933        13.7671 
 271   0.0000       0.509578        13.8663 
 272   0.0000       0.515289        14.0217 
 273   0.0000       0.516113        14.0441 
 274   0.0000       0.519368        14.1327 
 275   0.0000       0.523016        14.2320 
 276   0.0000       0.525528        14.3003 
 277   0.0000       0.528536        14.3822 
 278   0.0000       0.529901        14.4193 
 279   0.0000       0.531385        14.4597 
 280   0.0000       0.538318        14.6484 
 281   0.0000       0.539232        14.6733 
 282   0.0000       0.542889        14.7728 
 283   0.0000       0.547283        14.8923 
 284   0.0000       0.548373        14.9220 
 285   0.0000       0.553209        15.0536 
 286   0.0000       0.553989        15.0748 
 287   0.0000       0.554640        15.0925 
 288   0.0000       0.560169        15.2430 
 289   0.0000       0.562921        15.3179 
 290   0.0000       0.566689        15.4204 
 291   0.0000       0.568557        15.4712 
 292   0.0000       0.579244        15.7620 
 293   0.0000       0.581888        15.8340 
 294   0.0000       0.583246        15.8709 
 295   0.0000       0.590428        16.0664 
 296   0.0000       0.593715        16.1558 
 297   0.0000       0.597994        16.2723 
 298   0.0000       0.602965        16.4075 
 299   0.0000       0.605561        16.4782 
 300   0.0000       0.608115        16.5477 
 301   0.0000       0.611364        16.6361 
 302   0.0000       0.615779        16.7562 
 303   0.0000       0.618373        16.8268 
 304   0.0000       0.621806        16.9202 
 305   0.0000       0.622527        16.9398 
 306   0.0000       0.627471        17.0744 
 307   0.0000       0.635820        17.3015 
 308   0.0000       0.637554        17.3487 
 309   0.0000       0.642756        17.4903 
 310   0.0000       0.645459        17.5638 
 311   0.0000       0.647519        17.6199 
 312   0.0000       0.648407        17.6440 
 313   0.0000       0.653920        17.7941 
 314   0.0000       0.655781        17.8447 
 315   0.0000       0.656500        17.8643 
 316   0.0000       0.663529        18.0555 
 317   0.0000       0.665392        18.1062 
 318   0.0000       0.670505        18.2454 
 319   0.0000       0.673988        18.3401 
 320   0.0000       0.677731        18.4420 
 321   0.0000       0.679912        18.5013 
 322   0.0000       0.683829        18.6079 
 323   0.0000       0.688901        18.7460 
 324   0.0000       0.690279        18.7834 
 325   0.0000       0.692941        18.8559 
 326   0.0000       0.695024        18.9126 
 327   0.0000       0.703699        19.1486 
 328   0.0000       0.708319        19.2743 
 329   0.0000       0.709261        19.3000 
 330   0.0000       0.710376        19.3303 
 331   0.0000       0.712819        19.3968 
 332   0.0000       0.718418        19.5492 
 333   0.0000       0.723855        19.6971 
 334   0.0000       0.726987        19.7823 
 335   0.0000       0.729371        19.8472 
 336   0.0000       0.730781        19.8856 
 337   0.0000       0.733826        19.9684 
 338   0.0000       0.740874        20.1602 
 339   0.0000       0.743380        20.2284 
 340   0.0000       0.746743        20.3199 
 341   0.0000       0.751317        20.4444 
 342   0.0000       0.754418        20.5288 
 343   0.0000       0.763759        20.7829 
 344   0.0000       0.766668        20.8621 
 345   0.0000       0.768793        20.9199 
 346   0.0000       0.772072        21.0091 
 347   0.0000       0.776427        21.1276 
 348   0.0000       0.781623        21.2690 
 349   0.0000       0.784464        21.3464 
 350   0.0000       0.787610        21.4319 
 351   0.0000       0.788084        21.4449 
 352   0.0000       0.793949        21.6044 
 353   0.0000       0.797454        21.6998 
 354   0.0000       0.798941        21.7403 
 355   0.0000       0.803574        21.8664 
 356   0.0000       0.808753        22.0073 
 357   0.0000       0.811819        22.0907 
 358   0.0000       0.814405        22.1611 
 359   0.0000       0.815746        22.1976 
 360   0.0000       0.821284        22.3483 
 361   0.0000       0.823333        22.4040 
 362   0.0000       0.827228        22.5100 
 363   0.0000       0.829808        22.5802 
 364   0.0000       0.832402        22.6508 
 365   0.0000       0.833910        22.6919 
 366   0.0000       0.841191        22.8900 
 367   0.0000       0.841352        22.8943 
 368   0.0000       0.845302        23.0018 
 369   0.0000       0.849760        23.1231 
 370   0.0000       0.852203        23.1896 
 371   0.0000       0.854134        23.2422 
 372   0.0000       0.856672        23.3112 
 373   0.0000       0.860948        23.4276 
 374   0.0000       0.861477        23.4420 
 375   0.0000       0.866012        23.5654 
 376   0.0000       0.867891        23.6165 
 377   0.0000       0.871878        23.7250 
 378   0.0000       0.874948        23.8085 
 379   0.0000       0.876775        23.8582 
 380   0.0000       0.881145        23.9772 
 381   0.0000       0.886697        24.1282 
 382   0.0000       0.889430        24.2026 
 383   0.0000       0.890803        24.2400 
 384   0.0000       0.894560        24.3422 
 385   0.0000       0.899817        24.4853 
 386   0.0000       0.904132        24.6027 
 387   0.0000       0.908016        24.7084 
 388   0.0000       0.910233        24.7687 
 389   0.0000       0.911161        24.7939 
 390   0.0000       0.919577        25.0230 
 391   0.0000       0.926036        25.1987 
 392   0.0000       0.928332        25.2612 
 393   0.0000       0.932168        25.3656 
 394   0.0000       0.935302        25.4509 
 395   0.0000       0.937075        25.4991 
 396   0.0000       0.939123        25.5548 
 397   0.0000       0.941927        25.6311 
 398   0.0000       0.944190        25.6927 
 399   0.0000       0.946350        25.7515 
 400   0.0000       0.948901        25.8209 
 401   0.0000       0.951226        25.8842 
 402   0.0000       0.954017        25.9601 
 403   0.0000       0.958178        26.0733 
 404   0.0000       0.959532        26.1102 
 405   0.0000       0.963626        26.2216 
 406   0.0000       0.967411        26.3246 
 407   0.0000       0.969657        26.3857 
 408   0.0000       0.974711        26.5232 
 409   0.0000       0.976828        26.5808 
 410   0.0000       0.982482        26.7347 
 411   0.0000       0.983496        26.7623 
 412   0.0000       0.985620        26.8201 
 413   0.0000       0.989771        26.9330 
 414   0.0000       0.993617        27.0377 
 415   0.0000       0.998359        27.1667 
 416   0.0000       0.999367        27.1941 
 417   0.0000       1.005084        27.3497 
 418   0.0000       1.006383        27.3851 
 419   0.0000       1.011581        27.5265 
 420   0.0000       1.012905        27.5625 
 421   0.0000       1.016960        27.6729 
 422   0.0000       1.017823        27.6964 
 423   0.0000       1.023250        27.8441 
 424   0.0000       1.024952        27.8904 
 425   0.0000       1.027707        27.9653 
 426   0.0000       1.032979        28.1088 
 427   0.0000       1.034592        28.1527 
 428   0.0000       1.039060        28.2743 
 429   0.0000       1.040443        28.3119 
 430   0.0000       1.041417        28.3384 
 431   0.0000       1.045339        28.4451 
 432   0.0000       1.048907        28.5422 
 433   0.0000       1.052253        28.6333 
 434   0.0000       1.055108        28.7109 
 435   0.0000       1.057064        28.7642 
 436   0.0000       1.062868        28.9221 
 437   0.0000       1.064588        28.9689 
 438   0.0000       1.067047        29.0358 
 439   0.0000       1.070520        29.1303 
 440   0.0000       1.072119        29.1738 
 441   0.0000       1.076607        29.2960 
 442   0.0000       1.080096        29.3909 
 443   0.0000       1.083514        29.4839 
 444   0.0000       1.088468        29.6187 
 445   0.0000       1.091032        29.6885 
 446   0.0000       1.097668        29.8691 
 447   0.0000       1.098092        29.8806 
 448   0.0000       1.100266        29.9398 
 449   0.0000       1.105302        30.0768 
 450   0.0000       1.108833        30.1729 
 451   0.0000       1.110943        30.2303 
 452   0.0000       1.112577        30.2747 
 453   0.0000       1.117064        30.3969 
 454   0.0000       1.120667        30.4949 
 455   0.0000       1.124265        30.5928 
 456   0.0000       1.127761        30.6879 
 457   0.0000       1.129040        30.7227 
 458   0.0000       1.131413        30.7873 
 459   0.0000       1.134713        30.8771 
 460   0.0000       1.139536        31.0083 
 461   0.0000       1.141688        31.0669 
 462   0.0000       1.144786        31.1512 
 463   0.0000       1.146733        31.2042 
 464   0.0000       1.151015        31.3207 
 465   0.0000       1.153178        31.3796 
 466   0.0000       1.156815        31.4785 
 467   0.0000       1.166180        31.7334 
 468   0.0000       1.166915        31.7534 
 469   0.0000       1.172792        31.9133 
 470   0.0000       1.176933        32.0260 
 471   0.0000       1.177785        32.0492 
 472   0.0000       1.184669        32.2365 
 473   0.0000       1.187367        32.3099 
 474   0.0000       1.187982        32.3266 
 475   0.0000       1.191019        32.4093 
 476   0.0000       1.195173        32.5223 
 477   0.0000       1.198456        32.6116 
 478   0.0000       1.201175        32.6856 
 479   0.0000       1.203998        32.7625 
 480   0.0000       1.209382        32.9090 
 481   0.0000       1.213084        33.0097 
 482   0.0000       1.224835        33.3295 
 483   0.0000       1.225872        33.3577 
 484   0.0000       1.228176        33.4204 
 485   0.0000       1.234673        33.5972 
 486   0.0000       1.236088        33.6357 
 487   0.0000       1.238589        33.7037 
 488   0.0000       1.244060        33.8526 
 489   0.0000       1.246422        33.9169 
 490   0.0000       1.247873        33.9563 
 491   0.0000       1.255856        34.1736 
 492   0.0000       1.260726        34.3061 
 493   0.0000       1.261278        34.3211 
 494   0.0000       1.266461        34.4622 
 495   0.0000       1.267733        34.4968 
 496   0.0000       1.269906        34.5559 
 497   0.0000       1.277149        34.7530 
 498   0.0000       1.281181        34.8627 
 499   0.0000       1.286697        35.0128 
 500   0.0000       1.293195        35.1896 
 501   0.0000       1.296515        35.2800 
 502   0.0000       1.302812        35.4513 
 503   0.0000       1.303626        35.4735 
 504   0.0000       1.308873        35.6162 
 505   0.0000       1.313063        35.7303 
 506   0.0000       1.315017        35.7834 
 507   0.0000       1.317749        35.8578 
 508   0.0000       1.325119        36.0583 
 509   0.0000       1.327080        36.1117 
 510   0.0000       1.335005        36.3273 
 511   0.0000       1.338320        36.4175 
 512   0.0000       1.341704        36.5096 
 513   0.0000       1.344070        36.5740 
 514   0.0000       1.349203        36.7137 
 515   0.0000       1.354166        36.8487 
 516   0.0000       1.358209        36.9588 
 517   0.0000       1.361272        37.0421 
 518   0.0000       1.365757        37.1641 
 519   0.0000       1.370528        37.2940 
 520   0.0000       1.374354        37.3981 
 521   0.0000       1.378911        37.5221 
 522   0.0000       1.384959        37.6867 
 523   0.0000       1.387435        37.7540 
 524   0.0000       1.393834        37.9281 
 525   0.0000       1.396766        38.0079 
 526   0.0000       1.400226        38.1021 
 527   0.0000       1.402298        38.1585 
 528   0.0000       1.403110        38.1806 
 529   0.0000       1.407169        38.2910 
 530   0.0000       1.414330        38.4859 
 531   0.0000       1.417145        38.5625 
 532   0.0000       1.428287        38.8657 
 533   0.0000       1.431261        38.9466 
 534   0.0000       1.435836        39.0711 
 535   0.0000       1.437719        39.1223 
 536   0.0000       1.442501        39.2524 
 537   0.0000       1.442592        39.2549 
 538   0.0000       1.449471        39.4421 
 539   0.0000       1.452695        39.5298 
 540   0.0000       1.457560        39.6622 
 541   0.0000       1.463344        39.8196 
 542   0.0000       1.466729        39.9117 
 543   0.0000       1.469324        39.9824 
 544   0.0000       1.477187        40.1963 
 545   0.0000       1.481241        40.3066 
 546   0.0000       1.483272        40.3619 
 547   0.0000       1.488939        40.5161 
 548   0.0000       1.492458        40.6118 
 549   0.0000       1.496608        40.7248 
 550   0.0000       1.504307        40.9343 
 551   0.0000       1.506178        40.9852 
 552   0.0000       1.514164        41.2025 
 553   0.0000       1.515488        41.2385 
 554   0.0000       1.517826        41.3022 
 555   0.0000       1.525436        41.5092 
 556   0.0000       1.527676        41.5702 
 557   0.0000       1.531362        41.6705 
 558   0.0000       1.538539        41.8658 
 559   0.0000       1.543117        41.9903 
 560   0.0000       1.547365        42.1059 
 561   0.0000       1.549275        42.1579 
 562   0.0000       1.552006        42.2322 
 563   0.0000       1.559677        42.4410 
 564   0.0000       1.562214        42.5100 
 565   0.0000       1.566905        42.6377 
 566   0.0000       1.570587        42.7378 
 567   0.0000       1.580185        42.9990 
 568   0.0000       1.583187        43.0807 
 569   0.0000       1.589062        43.2406 
 570   0.0000       1.594694        43.3938 
 571   0.0000       1.599921        43.5361 
 572   0.0000       1.605420        43.6857 
 573   0.0000       1.607146        43.7327 
 574   0.0000       1.611187        43.8426 
 575   0.0000       1.616887        43.9977 
 576   0.0000       1.617295        44.0088 
 577   0.0000       1.622931        44.1622 
 578   0.0000       1.628255        44.3071 
 579   0.0000       1.634962        44.4896 
 580   0.0000       1.640889        44.6509 
 581   0.0000       1.651673        44.9443 
 582   0.0000       1.653374        44.9906 
 583   0.0000       1.661327        45.2070 
 584   0.0000       1.661821        45.2204 
 585   0.0000       1.666603        45.3506 
 586   0.0000       1.672541        45.5122 
 587   0.0000       1.674006        45.5520 
 588   0.0000       1.680847        45.7382 
 589   0.0000       1.683305        45.8051 
 590   0.0000       1.688980        45.9595 
 591   0.0000       1.691010        46.0147 
 592   0.0000       1.697632        46.1949 
 593   0.0000       1.701545        46.3014 
 594   0.0000       1.705178        46.4003 
 595   0.0000       1.710465        46.5441 
 596   0.0000       1.719805        46.7983 
 597   0.0000       1.724073        46.9144 
 598   0.0000       1.726106        46.9697 
 599   0.0000       1.732063        47.1318 
 600   0.0000       1.738209        47.2991 
 601   0.0000       1.740088        47.3502 
 602   0.0000       1.743258        47.4365 
 603   0.0000       1.751423        47.6586 
 604   0.0000       1.755442        47.7680 
 605   0.0000       1.759073        47.8668 
 606   0.0000       1.764013        48.0012 
 607   0.0000       1.768682        48.1283 
 608   0.0000       1.774898        48.2974 
 609   0.0000       1.780129        48.4398 
 610   0.0000       1.781866        48.4870 
 611   0.0000       1.786527        48.6139 
 612   0.0000       1.788534        48.6685 
 613   0.0000       1.797066        48.9007 
 614   0.0000       1.801058        49.0093 
 615   0.0000       1.813942        49.3599 
 616   0.0000       1.817429        49.4547 
 617   0.0000       1.823745        49.6266 
 618   0.0000       1.827427        49.7268 
 619   0.0000       1.831312        49.8325 
 620   0.0000       1.836358        49.9698 
 621   0.0000       1.838443        50.0266 
 622   0.0000       1.843833        50.1732 
 623   0.0000       1.847874        50.2832 
 624   0.0000       1.854405        50.4609 
 625   0.0000       1.860549        50.6281 
 626   0.0000       1.868956        50.8569 
 627   0.0000       1.872554        50.9548 
 628   0.0000       1.875763        51.0421 
 629   0.0000       1.884152        51.2704 
 630   0.0000       1.886479        51.3337 
 631   0.0000       1.893699        51.5302 
 632   0.0000       1.899331        51.6834 
 633   0.0000       1.904366        51.8204 
 634   0.0000       1.908722        51.9390 
 635   0.0000       1.914987        52.1094 
 636   0.0000       1.921931        52.2984 
 637   0.0000       1.928053        52.4650 
 638   0.0000       1.930226        52.5241 
 639   0.0000       1.933307        52.6080 
 640   0.0000       1.937553        52.7235 
 641   0.0000       1.942752        52.8650 
 642   0.0000       1.945344        52.9355 
 643   0.0000       1.947690        52.9993 
 644   0.0000       1.964293        53.4511 
 645   0.0000       1.967956        53.5508 
 646   0.0000       1.969519        53.5933 
 647   0.0000       1.974457        53.7277 
 648   0.0000       1.977522        53.8111 
 649   0.0000       1.982680        53.9515 
 650   0.0000       1.988760        54.1169 
 651   0.0000       1.996077        54.3160 
 652   0.0000       2.002459        54.4897 
 653   0.0000       2.006438        54.5980 
 654   0.0000       2.011433        54.7339 
 655   0.0000       2.019696        54.9587 
 656   0.0000       2.022964        55.0476 
 657   0.0000       2.025565        55.1184 
 658   0.0000       2.029912        55.2367 
 659   0.0000       2.037912        55.4544 
 660   0.0000       2.039591        55.5001 
 661   0.0000       2.050019        55.7839 
 662   0.0000       2.050335        55.7925 
 663   0.0000       2.056059        55.9482 
 664   0.0000       2.060370        56.0655 
 665   0.0000       2.062470        56.1227 
 666   0.0000       2.071293        56.3628 
 667   0.0000       2.076632        56.5080 
 668   0.0000       2.078342        56.5546 
 669   0.0000       2.085699        56.7548 
 670   0.0000       2.091040        56.9001 
 671   0.0000       2.094558        56.9958 
 672   0.0000       2.100927        57.1691 
 673   0.0000       2.106866        57.3307 
 674   0.0000       2.111511        57.4571 
 675   0.0000       2.120390        57.6987 
 676   0.0000       2.125080        57.8264 
 677   0.0000       2.130665        57.9784 
 678   0.0000       2.132636        58.0320 
 679   0.0000       2.137466        58.1634 
 680   0.0000       2.145239        58.3749 
 681   0.0000       2.149220        58.4833 
 682   0.0000       2.155650        58.6582 
 683   0.0000       2.160055        58.7781 
 684   0.0000       2.169699        59.0405 
 685   0.0000       2.171865        59.0995 
 686   0.0000       2.176036        59.2129 
 687   0.0000       2.182875        59.3991 
 688   0.0000       2.187180        59.5162 
 689   0.0000       2.195122        59.7323 
 690   0.0000       2.204069        59.9758 
 691   0.0000       2.210440        60.1491 
 692   0.0000       2.211210        60.1701 
 693   0.0000       2.214840        60.2689 
 694   0.0000       2.222078        60.4658 
 695   0.0000       2.229139        60.6580 
 696   0.0000       2.230206        60.6870 
 697   0.0000       2.234490        60.8036 
 698   0.0000       2.236826        60.8671 
 699   0.0000       2.245710        61.1089 
 700   0.0000       2.251476        61.2658 
 701   0.0000       2.257523        61.4303 
 702   0.0000       2.262674        61.5705 
 703   0.0000       2.265838        61.6566 
 704   0.0000       2.271300        61.8052 
 705   0.0000       2.282419        62.1078 
 706   0.0000       2.287202        62.2379 
[...]
      f+2     :     0.063249
      f-2     :     0.050059
      f+3     :     0.043052
      f-3     :     0.047034
 22 C s       :     2.484644  s :     2.484644
      pz      :     0.716904  p :     2.262594
      px      :     0.767506
      py      :     0.778184
      dz2     :     0.098621  d :     0.696630
      dxz     :     0.115702
      dyz     :     0.140035
      dx2y2   :     0.151411
      dxy     :     0.190860
      f0      :     0.028735  f :     0.335437
      f+1     :     0.057721
      f-1     :     0.031378
      f+2     :     0.046112
      f-2     :     0.046302
      f+3     :     0.044103
      f-3     :     0.081085
 23 C s       :     2.484790  s :     2.484790
      pz      :     0.729993  p :     2.274236
      px      :     0.757803
      py      :     0.786440
      dz2     :     0.099616  d :     0.689941
      dxz     :     0.123187
      dyz     :     0.169093
      dx2y2   :     0.172352
      dxy     :     0.125693
      f0      :     0.048175  f :     0.332656
      f+1     :     0.032538
      f-1     :     0.038339
      f+2     :     0.060841
      f-2     :     0.047523
      f+3     :     0.037185
      f-3     :     0.068054
 24 C s       :     2.480450  s :     2.480450
      pz      :     0.723165  p :     2.254548
      px      :     0.759495
      py      :     0.771888
      dz2     :     0.139868  d :     0.679943
      dxz     :     0.155074
      dyz     :     0.110606
      dx2y2   :     0.123354
      dxy     :     0.151040
      f0      :     0.032155  f :     0.334078
      f+1     :     0.057921
      f-1     :     0.040129
      f+2     :     0.063941
      f-2     :     0.048561
      f+3     :     0.044487
      f-3     :     0.046885
 25 O s       :     2.969491  s :     2.969491
      pz      :     1.240639  p :     3.836270
      px      :     1.326124
      py      :     1.269506
      dz2     :     0.034683  d :     0.261301
      dxz     :     0.071570
      dyz     :     0.060025
      dx2y2   :     0.053216
      dxy     :     0.041807
      f0      :     0.004488  f :     0.066755
      f+1     :     0.003867
      f-1     :     0.015599
      f+2     :     0.011806
      f-2     :     0.013604
      f+3     :     0.008811
      f-3     :     0.008580
 26 H s       :     0.641472  s :     0.641472
      pz      :     0.090686  p :     0.306821
      px      :     0.097616
      py      :     0.118519
      dz2     :     0.030084  d :     0.227601
      dxz     :     0.035354
      dyz     :     0.045437
      dx2y2   :     0.067225
      dxy     :     0.049501
 27 H s       :     0.586923  s :     0.586923
      pz      :     0.143205  p :     0.376216
      px      :     0.135111
      py      :     0.097899
      dz2     :     0.071738  d :     0.276147
      dxz     :     0.063004
      dyz     :     0.048292
      dx2y2   :     0.046689
      dxy     :     0.046425
 28 H s       :     0.655679  s :     0.655679
      pz      :     0.078158  p :     0.294072
      px      :     0.095848
      py      :     0.120066
      dz2     :     0.022565  d :     0.211896
      dxz     :     0.020635
      dyz     :     0.054200
      dx2y2   :     0.061624
      dxy     :     0.052871
 29 H s       :     0.667277  s :     0.667277
      pz      :     0.111554  p :     0.296571
      px      :     0.084289
      py      :     0.100727
      dz2     :     0.049451  d :     0.211619
      dxz     :     0.046664
      dyz     :     0.048020
      dx2y2   :     0.038625
      dxy     :     0.028860
 30 H s       :     0.667928  s :     0.667928
      pz      :     0.096206  p :     0.297896
      px      :     0.121470
      py      :     0.080219
      dz2     :     0.042393  d :     0.212079
      dxz     :     0.052942
      dyz     :     0.022733
      dx2y2   :     0.037998
      dxy     :     0.056014
 31 H s       :     0.659327  s :     0.659327
      pz      :     0.078746  p :     0.290452
      px      :     0.089552
      py      :     0.122153
      dz2     :     0.023870  d :     0.208911
      dxz     :     0.019770
      dyz     :     0.053545
      dx2y2   :     0.057579
      dxy     :     0.054147
 32 H s       :     0.567179  s :     0.567179
      pz      :     0.178135  p :     0.513070
      px      :     0.206092
      py      :     0.128843
      dz2     :     0.087437  d :     0.365018
      dxz     :     0.093516
      dyz     :     0.067174
      dx2y2   :     0.063218
      dxy     :     0.053673


                      *****************************
                      * MAYER POPULATION ANALYSIS *
                      *****************************

  NA   - Mulliken gross atomic population
  ZA   - Total nuclear charge
  QA   - Mulliken gross atomic charge
  VA   - Mayer's total valence
  BVA  - Mayer's bonded valence
  FA   - Mayer's free valence

  ATOM       NA         ZA         QA         VA         BVA        FA
  0 C      6.1634     6.0000    -0.1634     4.2192     4.2192    -0.0000
  1 C      5.1362     6.0000     0.8638     2.9621     2.9621     0.0000
  2 Cl    17.5247    17.0000    -0.5247     0.4222     0.4222     0.0000
  3 C      6.7572     6.0000    -0.7572     2.5081     2.5081     0.0000
  4 H      0.6131     1.0000     0.3869     0.9726     0.9726     0.0000
  5 C      6.4725     6.0000    -0.4725     2.0848     2.0848     0.0000
  6 C      4.8800     6.0000     1.1200     1.3842     1.3842    -0.0000
  7 C      7.1129     6.0000    -1.1129     2.0688     2.0688     0.0000
  8 S     13.8424    16.0000     2.1576     4.3571     4.3571     0.0000
  9 O      8.9795     8.0000    -0.9795     1.4713     1.4713     0.0000
 10 O      8.9562     8.0000    -0.9562     1.3871     1.3871     0.0000
 11 N      7.6465     7.0000    -0.6465     2.9648     2.9648     0.0000
 12 H      0.8549     1.0000     0.1451     1.0876     1.0876     0.0000
 13 H      0.8613     1.0000     0.1387     1.0662     1.0662    -0.0000
 14 H      0.8190     1.0000     0.1810     1.1641     1.1641     0.0000
 15 C      5.2101     6.0000     0.7899     3.3721     3.3721    -0.0000
 16 N      6.9271     7.0000     0.0729     2.5954     2.5954     0.0000
 17 C      4.6298     6.0000     1.3702     1.2152     1.2152     0.0000
 18 C      5.4216     6.0000     0.5784     1.6720     1.6720     0.0000
 19 C      5.2521     6.0000     0.7479     1.4209     1.4209     0.0000
 20 O      9.0032     8.0000    -1.0032     1.0896     1.0896     0.0000
 21 C      7.2129     6.0000    -1.2129     2.3089     2.3089    -0.0000
 22 C      6.5339     6.0000    -0.5339     2.7857     2.7857    -0.0000
 23 C      6.5052     6.0000    -0.5052     2.7862     2.7862     0.0000
 24 C      7.0433     6.0000    -1.0433     2.9233     2.9233    -0.0000
 25 O      8.8973     8.0000    -0.8973     1.2635     1.2635     0.0000
 26 H      0.5389     1.0000     0.4611     0.6968     0.6968     0.0000
 27 H      1.0116     1.0000    -0.0116     1.1320     1.1320    -0.0000
 28 H      0.6059     1.0000     0.3941     0.8402     0.8402    -0.0000
 29 H      0.5772     1.0000     0.4228     0.7804     0.7804    -0.0000
 30 H      0.2719     1.0000     0.7281     0.1521     0.1521     0.0000
 31 H      0.8777     1.0000     0.1223     1.3617     1.3617    -0.0000
 32 H      0.8605     1.0000     0.1395     1.0713     1.0713     0.0000

  Mayer bond orders larger than 0.100000
B(  0-C ,  1-C ) :   1.5515 B(  0-C ,  2-Cl) :   0.6962 B(  0-C ,  5-C ) :  -0.1503 
B(  0-C ,  6-C ) :   0.3846 B(  0-C ,  7-C ) :   0.8083 B(  0-C ,  8-S ) :   0.7648 
B(  0-C ,  9-O ) :   0.2891 B(  0-C , 10-O ) :   0.1137 B(  0-C , 15-C ) :  -0.2020 
B(  1-C ,  2-Cl) :  -0.2345 B(  1-C ,  3-C ) :   1.3427 B(  1-C ,  5-C ) :   0.2920 
B(  1-C ,  6-C ) :  -0.2018 B(  1-C ,  7-C ) :   0.2412 B(  1-C ,  8-S ) :   0.1821 
B(  1-C , 11-N ) :  -0.1139 B(  1-C , 15-C ) :   0.2179 B(  1-C , 17-C ) :  -0.1008 
B(  3-C ,  4-H ) :   0.8598 B(  3-C ,  5-C ) :   0.9374 B(  3-C ,  6-C ) :  -0.1723 
B(  3-C ,  9-O ) :  -0.1013 B(  3-C , 26-H ) :  -0.1267 B(  4-H ,  7-C ) :   0.1089 
B(  5-C ,  6-C ) :   0.3033 B(  5-C ,  7-C ) :  -0.2390 B(  5-C , 15-C ) :   0.1248 
B(  5-C , 26-H ) :   0.7753 B(  6-C ,  7-C ) :  -0.2564 B(  6-C , 15-C ) :   0.5429 
B(  6-C , 16-N ) :   0.1309 B(  6-C , 17-C ) :   0.5715 B(  6-C , 18-C ) :   0.1698 
B(  6-C , 21-C ) :  -0.2777 B(  6-C , 25-O ) :   0.2449 B(  7-C , 14-H ) :   1.2290 
B(  7-C , 15-C ) :   0.2955 B(  7-C , 16-N ) :  -0.2154 B(  7-C , 28-H ) :  -0.1083 
B(  8-S ,  9-O ) :   1.2652 B(  8-S , 10-O ) :   1.2364 B(  8-S , 11-N ) :   0.9559 
B( 11-N , 12-H ) :   0.9477 B( 11-N , 13-H ) :   0.9559 B( 15-C , 16-N ) :   1.0376 
B( 15-C , 17-C ) :   0.3916 B( 15-C , 18-C ) :  -0.2681 B( 15-C , 19-C ) :   0.6756 
B( 15-C , 20-O ) :   0.1565 B( 15-C , 21-C ) :   0.6950 B( 15-C , 22-C ) :  -0.1103 
B( 15-C , 24-C ) :  -0.2588 B( 15-C , 25-O ) :  -0.2587 B( 15-C , 27-H ) :   0.1829 
B( 16-N , 17-C ) :  -0.1033 B( 16-N , 18-C ) :   1.0756 B( 16-N , 19-C ) :  -0.4587 
B( 16-N , 20-O ) :  -0.1340 B( 16-N , 27-H ) :   1.1135 B( 17-C , 18-C ) :   0.2621 
B( 17-C , 19-C ) :   0.3270 B( 17-C , 20-O ) :   0.1013 B( 17-C , 21-C ) :  -0.3116 
B( 17-C , 22-C ) :  -0.4833 B( 17-C , 23-C ) :  -0.1035 B( 17-C , 24-C ) :   0.3067 
B( 17-C , 25-O ) :   0.1778 B( 17-C , 28-H ) :   0.1479 B( 17-C , 29-H ) :  -0.1487 
B( 17-C , 30-H ) :   0.1867 B( 18-C , 20-O ) :   0.5506 B( 18-C , 21-C ) :  -0.2300 
B( 18-C , 22-C ) :   0.1366 B( 18-C , 24-C ) :   0.1485 B( 18-C , 30-H ) :   0.1063 
B( 18-C , 31-H ) :  -0.1518 B( 19-C , 20-O ) :   0.2979 B( 19-C , 22-C ) :   0.1092 
B( 19-C , 23-C ) :   0.1939 B( 19-C , 24-C ) :   0.1658 B( 19-C , 26-H ) :   0.1023 
B( 19-C , 28-H ) :  -0.1104 B( 19-C , 29-H ) :   0.3267 B( 19-C , 30-H ) :  -0.2119 
B( 20-O , 31-H ) :   0.1564 B( 21-C , 22-C ) :   1.3453 B( 21-C , 23-C ) :   0.2603 
B( 21-C , 24-C ) :   0.1248 B( 21-C , 28-H ) :   0.8291 B( 22-C , 23-C ) :   1.1886 
B( 22-C , 24-C ) :  -0.2528 B( 22-C , 29-H ) :   0.7662 B( 23-C , 24-C ) :   1.1196 
B( 23-C , 29-H ) :  -0.1313 B( 23-C , 30-H ) :   0.2898 B( 24-C , 31-H ) :   1.4180 
B( 25-O , 32-H ) :   1.0491 

-------
TIMINGS
-------

Total SCF time: 0 days 0 hours 10 min 35 sec 

Total time                  ....     635.582 sec
Sum of individual times     ....     630.748 sec  ( 99.2%)

Fock matrix formation       ....     613.946 sec  ( 96.6%)
  Split-RI-J                ....      36.793 sec  (  6.0% of F)
  Chain of spheres X        ....     509.993 sec  ( 83.1% of F)
  XC integration            ....      64.985 sec  ( 10.6% of F)
    Basis function eval.    ....       9.796 sec  ( 15.1% of XC)
    Density eval.           ....      31.140 sec  ( 47.9% of XC)
    XC-Functional eval.     ....       0.417 sec  (  0.6% of XC)
    XC-Potential eval.      ....      21.381 sec  ( 32.9% of XC)
Diagonalization             ....       2.231 sec  (  0.4%)
Density matrix formation    ....       0.326 sec  (  0.1%)
Population analysis         ....       0.408 sec  (  0.1%)
Initial guess               ....       3.260 sec  (  0.5%)
Orbital Transformation      ....       0.000 sec  (  0.0%)
Orbital Orthonormalization  ....       0.000 sec  (  0.0%)
DIIS solution               ....       1.550 sec  (  0.2%)
SOSCF solution              ....       2.483 sec  (  0.4%)
Grid generation             ....       6.543 sec  (  1.0%)

Maximum memory used throughout the entire SCF-calculation: 379.4 MB


           ************************************************************
           *        Program running with 8 parallel MPI-processes     *
           *              working on a common directory               *
           ************************************************************

------------------------------------------------------------------------------
                                ORCA  MP2 
------------------------------------------------------------------------------

Freezing NCore=60 chemical core electrons

   <<< Use J-auxbasis for calculation of Separable RI-J derivative contributions (Dim=1203) >>> 


-------------
RI-MP2 ENERGY
-------------
Dimension of the basis                    ... 1273
Memory devoted to MP2                     ... 3000 MB   
Data format for buffers                   ... DOUBLE
Compression type for matrix containers    ... UNCOMPRESSED
Scaling for aa/bb pairs                   ...   2.500e-01
Scaling for ab pairs                      ...   5.300e-01
Overall scaling of the MP2 energy         ...   1.000e+00
Calculating two index integrals           ... done (    0.103 sec)
Cholesky decomposition of V**-1           ... done (    0.842 sec)

-----------------
RI-TRANSFORMATION (AUX index driven)
-----------------

Dimension of the orbital-basis         ... 1273
Dimension of the aux-basis             ... 2920
Transformation of internal/external MOs...   30-  86 to   87-1272
Number Format for Storage              ... Double (8 Byte)
Integral mode                          ... Direct

First Phase: integral generation and transformation of MO indices
  Aux angular momentum 0               ... done (    1.544 sec)
  Aux angular momentum 1               ... done (    2.987 sec)
  Aux angular momentum 2               ... done (    4.187 sec)
  Aux angular momentum 3               ... done (    3.971 sec)
  Aux angular momentum 4               ... done (    1.980 sec)
Closing buffer VIA ( 1.47 GB; CompressionRatio= 1.00)
  Phase 1 completed in    14.976 sec
Second Phase: sorting and transformation of aux index

IA-Transformation
Memory available                       ... 2851 MB 
Max. # MO pairs treated in a batch     ... 8    
# of internal orbitals                 ... 57
# batches for internal orbitals        ... 1
Closing buffer IAV ( 1.47 GB; CompressionRatio= 1.00)
(ia|v) transformation done in     3.284 sec

  Phase 2 completed in     3.614 sec
RI-Integral transformation completed in    18.618 sec
Opening buffers                              ... done

Starting loop over batches of integrals:

Operator 0  - window                       ... ( 30- 86)x( 87-1272)
Operator 0  - Memory available             ...  3000 MB
Operator 0  - Memory needed per MO         ...  26.4 MB
Operator 0  - Number of orbitals per batch ... 8
Operator 0  - Number of batches            ... 1

OPERATOR  0   PASS   0:  MOs    30 ...   37 +   38 ...   45 +   46 ...   53 +   54 ...   61
                            +   62 ...   69 +   70 ...   77 +   78 ...   85 +   86 ...   86
  Reading integrals       ... ok
  Internal MO  32
  Internal MO  35
Time spent in pair loops =     5.688 sec
Deleting buffer (Ka|jb)[aa] ...done

-----------------------------------------------
 RI-MP2 CORRELATION ENERGY:     -2.051286339 Eh
-----------------------------------------------


-------
TIMINGS
-------

Total time                :   79.803 sec
Integral trafo            :   18.644 sec ( 23.4%)
I/O of integrals          :    0.169 sec (  0.2%)
K(i,j) Operators          :    4.654 sec (  5.8%)
T(i,j) pair energies      :    0.583 sec (  0.7%)
V-calculation             :    0.103 sec (  0.1%)
V**(-1/2)                 :    0.842 sec (  1.1%)
Gamma(ia|P)               :    0.000 sec (  0.0%)
Gamma-Trafo               :    0.000 sec (  0.0%)
D(virtual)                :    0.000 sec (  0.0%)
D(internal)               :    0.000 sec (  0.0%)
W(virtual)                :    0.000 sec (  0.0%)
W(internal)               :    0.000 sec (  0.0%)
L(virtual)                :    0.000 sec (  0.0%)
L(internal)               :    0.000 sec (  0.0%)
G(D)                      :    0.000 sec (  0.0%)
G(Z)                      :    0.000 sec (  0.0%)
Z-Vector Solution         :    0.000 sec (  0.0%)
3-Index Derivative        :    0.000 sec (  0.0%)
2-Index Derivative        :    0.000 sec (  0.0%)
Separable Gradient (RIJ)  :    0.000 sec (  0.0%)
Separable Gradient (COSX) :    0.000 sec (  0.0%)


---------------------------------------
MP2 TOTAL ENERGY:    -1807.034993315 Eh
---------------------------------------

Maximum memory used throughout the entire MP2-calculation: 457.8 MB


-------------------------------------------------------------------------------
                          DFT DISPERSION CORRECTION                            
                                                                               
                              DFTD3 V3.1  Rev 1                                
                          USING Becke-Johnson damping                          
-------------------------------------------------------------------------------
The DSD-PBEP86 functional is recognized
Active option DFTDOPT                   ...         4   

molecular C6(AA) [au] = 17039.849112 


            DFT-D V3
 parameters
 s6 scaling factor         :     0.4180 
 a1 scaling factor         :     0.0000 
 s8 scaling factor         :     0.0000 
 a2 scaling factor         :     5.6500 
 ad hoc parameters k1-k3   :    16.0000     1.3333    -4.0000 

 Edisp/kcal,au: -18.559560030500  -0.029576538392 
 E6   /kcal   : -18.559560030 
 E8   /kcal   :  -0.000000000 
 % E8         :   0.000000000 

-------------------------   ----------------
Dispersion correction           -0.029576538
-------------------------   ----------------


-------------------------   --------------------
FINAL SINGLE POINT ENERGY     -1807.064569853462
-------------------------   --------------------


                            ***************************************
                            *     ORCA property calculations      *
                            ***************************************


  WARNING: The energy has been calculated at the MP2 level but the densities
           used in the property calculations are still SCF densities
           MP2 response densities have not been calculated 
           use %mp2 Density relaxed end
           or  %mp2 Density unrelaxed end

                                    ---------------------
                                    Active property flags
                                    ---------------------
   (+) Dipole Moment


------------------------------------------------------------------------------
                       ORCA ELECTRIC PROPERTIES CALCULATION
------------------------------------------------------------------------------

Dipole Moment Calculation                       ... on
Quadrupole Moment Calculation                   ... off
Polarizability Calculation                      ... off
GBWName                                         ... HA.36.avtz.gbw
Electron density                                ... HA.36.avtz.scfp
The origin for moment calculation is the CENTER OF MASS  = (-0.573072,  2.430076 -3.412250)

-------------
DIPOLE MOMENT
-------------
                                X             Y             Z
Electronic contribution:    -13.91482       1.40989       4.39077
Nuclear contribution   :     13.10516      -4.09757      -5.20402
                        -----------------------------------------
Total Dipole Moment    :     -0.80966      -2.68768      -0.81325
                        -----------------------------------------
Magnitude (a.u.)       :      2.92243
Magnitude (Debye)      :      7.42822



--------------------
Rotational spectrum 
--------------------
 
Rotational constants in cm-1:     0.014083     0.005017     0.004547 
Rotational constants in MHz :   422.210558   150.404974   136.324275 

 Dipole components along the rotational axes: 
x,y,z [a.u.] :     0.348364    -2.610696    -1.266285 
x,y,z [Debye]:     0.885470    -6.635863    -3.218641 

 

Timings for individual modules:

Sum of individual times         ...      763.821 sec (=  12.730 min)
GTO integral calculation        ...       17.072 sec (=   0.285 min)   2.2 %
SCF iterations                  ...      652.017 sec (=  10.867 min)  85.4 %
MP2 module                      ...       94.731 sec (=   1.579 min)  12.4 %
                             ****ORCA TERMINATED NORMALLY****
TOTAL RUN TIME: 0 days 0 hours 12 minutes 59 seconds 694 msec
