
                                 *****************
                                 * O   R   C   A *
                                 *****************

                                            #,                                       
                                            ###                                      
                                            ####                                     
                                            #####                                    
                                            ######                                   
                                           ########,                                 
                                     ,,################,,,,,                         
                               ,,#################################,,                 
                          ,,##########################################,,             
                       ,#########################################, ''#####,          
                    ,#############################################,,   '####,        
                  ,##################################################,,,,####,       
                ,###########''''           ''''###############################       
              ,#####''   ,,,,##########,,,,          '''####'''          '####       
            ,##' ,,,,###########################,,,                        '##       
           ' ,,###''''                  '''############,,,                           
         ,,##''                                '''############,,,,        ,,,,,,###''
      ,#''                                            '''#######################'''  
     '                                                          ''''####''''         
             ,#######,   #######,   ,#######,      ##                                
            ,#'     '#,  ##    ##  ,#'     '#,    #''#        ######   ,####,        
            ##       ##  ##   ,#'  ##            #'  '#       #        #'  '#        
            ##       ##  #######   ##           ,######,      #####,   #    #        
            '#,     ,#'  ##    ##  '#,     ,#' ,#      #,         ##   #,  ,#        
             '#######'   ##     ##  '#######'  #'      '#     #####' # '####'        



                  #######################################################
                  #                        -***-                        #
                  #          Department of theory and spectroscopy      #
                  #    Directorship and core code : Frank Neese         #
                  #        Max Planck Institute fuer Kohlenforschung    #
                  #                Kaiser Wilhelm Platz 1               #
                  #                 D-45470 Muelheim/Ruhr               #
                  #                      Germany                        #
                  #                                                     #
                  #                  All rights reserved                #
                  #                        -***-                        #
                  #######################################################


                         Program Version 5.0.3 -  RELEASE  -


 With contributions from (in alphabetic order):
   Daniel Aravena         : Magnetic Suceptibility
   Michael Atanasov       : Ab Initio Ligand Field Theory (pilot matlab implementation)
   Alexander A. Auer      : GIAO ZORA, VPT2 properties, NMR spectrum
   Ute Becker             : Parallelization
   Giovanni Bistoni       : ED, misc. LED, open-shell LED, HFLD
   Martin Brehm           : Molecular dynamics
   Dmytro Bykov           : SCF Hessian
   Vijay G. Chilkuri      : MRCI spin determinant printing, contributions to CSF-ICE
   Dipayan Datta          : RHF DLPNO-CCSD density
   Achintya Kumar Dutta   : EOM-CC, STEOM-CC
   Dmitry Ganyushin       : Spin-Orbit,Spin-Spin,Magnetic field MRCI
   Miquel Garcia          : C-PCM and meta-GGA Hessian, CC/C-PCM, Gaussian charge scheme
   Yang Guo               : DLPNO-NEVPT2, F12-NEVPT2, CIM, IAO-localization
   Andreas Hansen         : Spin unrestricted coupled pair/coupled cluster methods
   Benjamin Helmich-Paris : MC-RPA, TRAH-SCF, COSX integrals
   Lee Huntington         : MR-EOM, pCC
   Robert Izsak           : Overlap fitted RIJCOSX, COSX-SCS-MP3, EOM
   Marcus Kettner         : VPT2
   Christian Kollmar      : KDIIS, OOCD, Brueckner-CCSD(T), CCSD density, CASPT2, CASPT2-K
   Simone Kossmann        : Meta GGA functionals, TD-DFT gradient, OOMP2, MP2 Hessian
   Martin Krupicka        : Initial AUTO-CI
   Lucas Lang             : DCDCAS
   Marvin Lechner         : AUTO-CI (C++ implementation), FIC-MRCC
   Dagmar Lenk            : GEPOL surface, SMD
   Dimitrios Liakos       : Extrapolation schemes; Compound Job, initial MDCI parallelization
   Dimitrios Manganas     : Further ROCIS development; embedding schemes
   Dimitrios Pantazis     : SARC Basis sets
   Anastasios Papadopoulos: AUTO-CI, single reference methods and gradients
   Taras Petrenko         : DFT Hessian,TD-DFT gradient, ASA, ECA, R-Raman, ABS, FL, XAS/XES, NRVS
   Peter Pinski           : DLPNO-MP2, DLPNO-MP2 Gradient
   Christoph Reimann      : Effective Core Potentials
   Marius Retegan         : Local ZFS, SOC
   Christoph Riplinger    : Optimizer, TS searches, QM/MM, DLPNO-CCSD(T), (RO)-DLPNO pert. Triples
   Tobias Risthaus        : Range-separated hybrids, TD-DFT gradient, RPA, STAB
   Michael Roemelt        : Original ROCIS implementation
   Masaaki Saitow         : Open-shell DLPNO-CCSD energy and density
   Barbara Sandhoefer     : DKH picture change effects
   Avijit Sen             : IP-ROCIS
   Kantharuban Sivalingam : CASSCF convergence, NEVPT2, FIC-MRCI
   Bernardo de Souza      : ESD, SOC TD-DFT
   Georgi Stoychev        : AutoAux, RI-MP2 NMR, DLPNO-MP2 response
   Willem Van den Heuvel  : Paramagnetic NMR
   Boris Wezisla          : Elementary symmetry handling
   Frank Wennmohs         : Technical directorship


 We gratefully acknowledge several colleagues who have allowed us to
 interface, adapt or use parts of their codes:
   Stefan Grimme, W. Hujo, H. Kruse, P. Pracht,  : VdW corrections, initial TS optimization,
                  C. Bannwarth, S. Ehlert          DFT functionals, gCP, sTDA/sTD-DF
   Ed Valeev, F. Pavosevic, A. Kumar             : LibInt (2-el integral package), F12 methods
   Garnet Chan, S. Sharma, J. Yang, R. Olivares  : DMRG
   Ulf Ekstrom                                   : XCFun DFT Library
   Mihaly Kallay                                 : mrcc  (arbitrary order and MRCC methods)
   Jiri Pittner, Ondrej Demel                    : Mk-CCSD
   Frank Weinhold                                : gennbo (NPA and NBO analysis)
   Christopher J. Cramer and Donald G. Truhlar   : smd solvation model
   Lars Goerigk                                  : TD-DFT with DH, B97 family of functionals
   V. Asgeirsson, H. Jonsson                     : NEB implementation
   FAccTs GmbH                                   : IRC, NEB, NEB-TS, DLPNO-Multilevel, CI-OPT
                                                   MM, QMMM, 2- and 3-layer-ONIOM, Crystal-QMMM,
                                                   LR-CPCM, SF, NACMEs, symmetry and pop. for TD-DFT,
                                                   nearIR, NL-DFT gradient (VV10), updates on ESD,
                                                   ML-optimized integration grids
   S Lehtola, MJT Oliveira, MAL Marques          : LibXC Library
   Liviu Ungur et al                             : ANISO software


 Your calculation uses the libint2 library for the computation of 2-el integrals
 For citations please refer to: http://libint.valeyev.net

 Your ORCA version has been built with support for libXC version: 5.1.0
 For citations please refer to: https://tddft.org/programs/libxc/

 This ORCA versions uses:
   CBLAS   interface :  Fast vector & matrix operations
   LAPACKE interface :  Fast linear algebra routines
   SCALAPACK package :  Parallel linear algebra routines
   Shared memory     :  Shared parallel matrices
   BLAS/LAPACK       :  OpenBLAS 0.3.15  USE64BITINT DYNAMIC_ARCH NO_AFFINITY SkylakeX SINGLE_THREADED
        Core in use  :  SkylakeX
   Copyright (c) 2011-2014, The OpenBLAS Project


Your calculation utilizes the atom-pairwise dispersion correction
with the Becke-Johnson damping scheme (D3BJ)
Cite in your paper:
S.Grimme, S.Ehrlich, L.Goerigk, J Comput Chem, (2011), 32, 1456–1465 
S.Grimme, J.Antony, S.Ehrlich and H.Krieg, J.Chem.Phys., 132, (2010), 154104 
   

================================================================================

----- Orbital basis set information -----
Your calculation utilizes the basis: aug-cc-pVTZ 
    H, B-Ne : Obtained from the ccRepo (grant-hill.group.shef.ac.uk/ccrepo) Feb. 2017
              R. A. Kendall, T. H. Dunning, Jr., R. J. Harrison, J. Chem. Phys. 96, 6796 (1992)
         He : Obtained from the ccRepo (grant-hill.group.shef.ac.uk/ccrepo) Feb. 2017
              D. E. Woon, T. H. Dunning, Jr., J. Chem. Phys. 100, 2975 (1994)
  Li-Be, Na : Obtained from the ccRepo (grant-hill.group.shef.ac.uk/ccrepo) Feb. 2017
              B. P. Prascher, D. E. Woon, K. A. Peterson, T. H. Dunning, Jr., A. K. Wilson, Theor. Chem. Acc. 128, 69 (2011)
         Mg : Obtained from the Peterson Research Group Website (tyr0.chem.wsu.edu/~kipeters) Feb. 2017
              B. P. Prascher, D. E. Woon, K. A. Peterson, T. H. Dunning, Jr., A. K. Wilson, Theor. Chem. Acc. 128, 69 (2011)
      Al-Ar : Obtained from the ccRepo (grant-hill.group.shef.ac.uk/ccrepo) Feb. 2017
              D. E. Woon, T. H. Dunning, Jr., J. Chem. Phys. 98, 1358 (1993)
      Sc-Zn : Obtained from the ccRepo (grant-hill.group.shef.ac.uk/ccrepo) Feb. 2017
              N. B. Balabanov, K. A. Peterson, J. Chem. Phys. 123, 064107 (2005)
              N. B. Balabanov, K. A. Peterson, J. Chem. Phys. 125, 074110 (2006)
      Ga-Kr : Obtained from the ccRepo (grant-hill.group.shef.ac.uk/ccrepo) Feb. 2017
              A. K. Wilson, D. E. Woon, K. A. Peterson, T. H. Dunning, Jr., J. Chem. Phys. 110, 7667 (1999)
     Ag, Au : Obtained from the Peterson Research Group Website (tyr0.chem.wsu.edu/~kipeters) Feb. 2017
              K. A. Peterson, C. Puzzarini, Theor. Chem. Acc. 114, 283 (2005)

----- AuxJ basis set information -----
Your calculation utilizes the auxiliary basis: def2/J
   F. Weigend, Phys. Chem. Chem. Phys. 8, 1057 (2006).

----- AuxC basis set information -----
Your calculation utilizes the auxiliary basis: aug-cc-pVTZ/C 
  H-He, B-F, Al-Ar, Ga-Kr : Obtained from the EMSL Basis Set Exchange (bse.pnl.gov) Feb. 2017
                            F. Weigend, A. Kohn, C. Hattig, J. Chem. Phys. 116, 3175 (2002)
                   Be, Mg : Obtained from the TURBOMOLE 7.0 basis set library
                            C. Haettig, Phys. Chem. Chem. Phys. 7, 59 (2005)
                       Ne : Obtained from the EMSL Basis Set Exchange (bse.pnl.gov) Feb. 2017
                            C. Haettig, Phys. Chem. Chem. Phys. 7, 59 (2005)
                            F. Weigend, A. Kohn, C. Hattig, J. Chem. Phys. 116, 3175 (2002)
                    Sc-Zn : Obtained from the EMSL Basis Set Exchange (bse.pnl.gov) Feb. 2017
                            J. G. Hill, J. A. Platts, J. Chem. Phys. 128, 044104 (2008)

================================================================================
                                        WARNINGS
                       Please study these warnings very carefully!
================================================================================


WARNING: No MP2 level density has been requested!
         To caclulate MP2 level properties use
         %mp2 Density relaxed end
         or
         %mp2 Density unrelaxed end
         Otherwise for double-hybrid DFT only the energy is correct!

WARNING: There are different parametrizations of Gershom Martin's DSD-DFs
         for use with and without D3(BJ)!
         You are using the D3(BJ) parametrized version,
         consistent with the GMTKN55 benchmark (L. Goerigk et al., PCCP 2017, 19, 32184)

WARNING: The frozen-core approximation is turned on by default for 
         the MP2 part of double-hybrid DFT.

INFO   : the flag for use of the SHARK integral package has been found!

================================================================================
                                       INPUT FILE
================================================================================
NAME = HA.40.avtz.com
|  1> !PAL8
|  2> !RI-DSD-PBEP86 D3BJ aug-cc-pVTZ aug-cc-pVTZ/C TightSCF
|  3> %maxcore 3000
|  4> 
|  5> 
|  6> * xyz 0 1
|  7> C -1.5826453721  1.1895455204 -1.2269886136
|  8> C -2.697494406  1.313212033 -2.0988411044
|  9> C -2.7577748304  0.6189766026 -3.2803498941
| 10> C -1.6862506744 -0.2176506959 -3.6628155361
| 11> C -0.5803543167 -0.3209660511 -2.8555065856
| 12> C -0.4760882402  0.3737712539 -1.6096755142
| 13> S  0.7762833814 -1.3062576435 -3.4908154234
| 14> O  1.2972730399 -2.1408102217 -2.4227866767
| 15> O  0.3439227871 -1.8649878972 -4.7597214763
| 16> N  1.9952257428 -0.2329495061 -3.8723860702
| 17> H  2.344066343  0.2753501486 -3.0627124139
| 18> H  1.7218989469  0.3934946773 -4.6259259423
| 19> C  0.6693851404  0.3226623116 -0.7649403623
| 20> C  0.7102378652  1.080622512  0.3769765355
| 21> C -0.3880842308  1.8759825421  0.7738257694
| 22> C -1.5392177768  1.9104372425  0.016724178
| 23> N -2.689017156  2.6451809755  0.398701174
| 24> C -3.7942334753  1.8023822676  0.8577571622
| 25> C -2.4620179186  3.7420922642  1.3233328657
| 26> H -3.4932850994  1.9964218195 -1.8207466816
| 27> H -3.6148734327  0.724942939 -3.9376677911
| 28> H -1.713829471 -0.7672552956 -4.5981580703
| 29> H  1.4885184261 -0.3485792184 -0.9957377044
| 30> H  1.5888042392  1.0418846981  1.0143962604
| 31> H -0.3278293192  2.4303335204  1.7042996023
| 32> H -3.9495505033  0.9649247431  0.1756013988
| 33> H -4.7105496244  2.3995952942  0.8952727352
| 34> H -3.5957265489  1.3957001579  1.8635364507
| 35> H -1.64273578  4.3686115814  0.9626135791
| 36> H -2.2297710533  3.4028326334  2.3477952198
| 37> H -3.3708246822  4.3489757912  1.3698359293
| 38> *
| 39> 
| 40>                          ****END OF INPUT****
================================================================================

                       ****************************
                       * Single Point Calculation *
                       ****************************

---------------------------------
CARTESIAN COORDINATES (ANGSTROEM)
---------------------------------
  C     -1.582645    1.189546   -1.226989
  C     -2.697494    1.313212   -2.098841
  C     -2.757775    0.618977   -3.280350
  C     -1.686251   -0.217651   -3.662816
  C     -0.580354   -0.320966   -2.855507
  C     -0.476088    0.373771   -1.609676
  S      0.776283   -1.306258   -3.490815
  O      1.297273   -2.140810   -2.422787
  O      0.343923   -1.864988   -4.759721
  N      1.995226   -0.232950   -3.872386
  H      2.344066    0.275350   -3.062712
  H      1.721899    0.393495   -4.625926
  C      0.669385    0.322662   -0.764940
  C      0.710238    1.080623    0.376977
  C     -0.388084    1.875983    0.773826
  C     -1.539218    1.910437    0.016724
  N     -2.689017    2.645181    0.398701
  C     -3.794233    1.802382    0.857757
  C     -2.462018    3.742092    1.323333
  H     -3.493285    1.996422   -1.820747
  H     -3.614873    0.724943   -3.937668
  H     -1.713829   -0.767255   -4.598158
  H      1.488518   -0.348579   -0.995738
  H      1.588804    1.041885    1.014396
  H     -0.327829    2.430334    1.704300
  H     -3.949551    0.964925    0.175601
  H     -4.710550    2.399595    0.895273
  H     -3.595727    1.395700    1.863536
  H     -1.642736    4.368612    0.962614
  H     -2.229771    3.402833    2.347795
  H     -3.370825    4.348976    1.369836

----------------------------
CARTESIAN COORDINATES (A.U.)
----------------------------
  NO LB      ZA    FRAG     MASS         X           Y           Z
   0 C     6.0000    0    12.011   -2.990766    2.247915   -2.318672
   1 C     6.0000    0    12.011   -5.097526    2.481611   -3.966235
   2 C     6.0000    0    12.011   -5.211439    1.169696   -6.198963
   3 C     6.0000    0    12.011   -3.186552   -0.411300   -6.921718
   4 C     6.0000    0    12.011   -1.096711   -0.606538   -5.396125
   5 C     6.0000    0    12.011   -0.899676    0.706325   -3.041846
   6 S    16.0000    0    32.060    1.466963   -2.468469   -6.596685
   7 O     8.0000    0    15.999    2.451491   -4.045545   -4.578403
   8 O     8.0000    0    15.999    0.649920   -3.524316   -8.994570
   9 N     7.0000    0    14.007    3.770430   -0.440211   -7.317749
  10 H     1.0000    0     1.008    4.429643    0.520336   -5.787688
  11 H     1.0000    0     1.008    3.253917    0.743597   -8.741733
  12 C     6.0000    0    12.011    1.264955    0.609743   -1.445528
  13 C     6.0000    0    12.011    1.342155    2.042081    0.712382
  14 C     6.0000    0    12.011   -0.733373    3.545093    1.462319
  15 C     6.0000    0    12.011   -2.908700    3.610203    0.031604
  16 N     7.0000    0    14.007   -5.081506    4.998668    0.753436
  17 C     6.0000    0    12.011   -7.170062    3.406009    1.620926
  18 C     6.0000    0    12.011   -4.652540    7.071530    2.500737
  19 H     1.0000    0     1.008   -6.601352    3.772690   -3.440713
  20 H     1.0000    0     1.008   -6.831121    1.369944   -7.441114
  21 H     1.0000    0     1.008   -3.238668   -1.449902   -8.689259
  22 H     1.0000    0     1.008    2.812892   -0.658719   -1.881672
  23 H     1.0000    0     1.008    3.002405    1.968877    1.916931
  24 H     1.0000    0     1.008   -0.619508    4.592665    3.220659
  25 H     1.0000    0     1.008   -7.463569    1.823444    0.331839
  26 H     1.0000    0     1.008   -8.901649    4.534578    1.691820
  27 H     1.0000    0     1.008   -6.794938    2.637491    3.521574
  28 H     1.0000    0     1.008   -3.104321    8.255479    1.819076
  29 H     1.0000    0     1.008   -4.213657    6.430422    4.436690
  30 H     1.0000    0     1.008   -6.369935    8.218373    2.588615

--------------------------------
INTERNAL COORDINATES (ANGSTROEM)
--------------------------------
 C      0   0   0     0.000000000000     0.00000000     0.00000000
 C      1   0   0     1.420671862339     0.00000000     0.00000000
 C      2   1   0     1.371699523411   121.26718750     0.00000000
 C      3   2   1     1.412228459137   119.98409787   358.70764313
 C      4   3   2     1.373109084578   119.76456871   359.28159819
 C      1   2   3     1.427026840649   119.58358768     2.74016241
 S      5   4   3     1.793009393547   116.25758446   184.62590233
 O      7   5   4     1.452099732739   109.06716492   222.97883819
 O      7   5   4     1.452321504003   107.20164201   356.78118063
 N      7   5   4     1.668354577637   106.27959394   109.09034235
 H     10   7   5     1.017658947301   112.94287542    62.63707405
 H     10   7   5     1.017330915247   111.66974306   295.40600304
 C      6   1   2     1.424183578933   119.02108487   176.20981781
 C     13   6   1     1.371184455861   119.87355322   358.17673080
 C     14  13   6     1.412939601855   121.46051972     2.80291752
 C     15  14  13     1.378222908969   120.59946974     0.00000000
 N     16  15  14     1.416966263206   122.86261023   177.22045175
 C     17  16  15     1.463743548162   113.49545845   252.81170172
 C     17  16  15     1.452476090803   115.87361054    22.51901697
 H      2   1   3     1.085078314254   118.23219725   181.75493775
 H      3   2   1     1.085317325132   120.46160939   180.13394555
 H      4   3   2     1.085214938303   120.94186201   180.53365709
 H     13   6   1     1.083887422410   120.24940444   175.22296105
 H     14  13   6     1.086132311204   119.54642738   180.34780386
 H     15  14  13     1.084765972561   119.03912242   177.66021180
 H     18  17  16     1.091235524563   110.68918220   313.61453807
 H     18  17  16     1.094397597978   109.19249102   193.95564313
 H     18  17  16     1.102899503742   111.24850950    73.97878131
 H     19  17  16     1.092642705178   109.88022666    49.59051184
 H     19  17  16     1.103883516726   113.05234503   287.63246045
 H     19  17  16     1.093800660008   108.43494877   168.14401163

---------------------------
INTERNAL COORDINATES (A.U.)
---------------------------
 C      0   0   0     0.000000000000     0.00000000     0.00000000
 C      1   0   0     2.684680745988     0.00000000     0.00000000
 C      2   1   0     2.592136437278   121.26718750     0.00000000
 C      3   2   1     2.668725026299   119.98409787   358.70764313
 C      4   3   2     2.594800121852   119.76456871   359.28159819
 C      1   2   3     2.696689914582   119.58358768     2.74016241
 S      5   4   3     3.388296709352   116.25758446   184.62590233
 O      7   5   4     2.744070814018   109.06716492   222.97883819
 O      7   5   4     2.744489900970   107.20164201   356.78118063
 N      7   5   4     3.152733246009   106.27959394   109.09034235
 H     10   7   5     1.923096708134   112.94287542    62.63707405
 H     10   7   5     1.922476817388   111.66974306   295.40600304
 C      6   1   2     2.691316928611   119.02108487   176.20981781
 C     13   6   1     2.591163100667   119.87355322   358.17673080
 C     14  13   6     2.670068891277   121.46051972     2.80291752
 C     15  14  13     2.604463849447   120.59946974     0.00000000
 N     16  15  14     2.677678178466   122.86261023   177.22045175
 C     17  16  15     2.766074436321   113.49545845   252.81170172
 C     17  16  15     2.744782027686   115.87361054    22.51901697
 H      2   1   3     2.050500847797   118.23219725   181.75493775
 H      3   2   1     2.050952512899   120.46160939   180.13394555
 H      4   3   2     2.050759029834   120.94186201   180.53365709
 H     13   6   1     2.048250388357   120.24940444   175.22296105
 H     14  13   6     2.052492613378   119.54642738   180.34780386
 H     15  14  13     2.049910607537   119.03912242   177.66021180
 H     18  17  16     2.062136289030   110.68918220   313.61453807
 H     18  17  16     2.068111741799   109.19249102   193.95564313
 H     18  17  16     2.084178015310   111.24850950    73.97878131
 H     19  17  16     2.064795475014   109.88022666    49.59051184
 H     19  17  16     2.086037530363   113.05234503   287.63246045
 H     19  17  16     2.066983692517   108.43494877   168.14401163

---------------------
BASIS SET INFORMATION
---------------------
There are 5 groups of distinct atoms

 Group   1 Type C   : 19s6p3d2f contracted to 5s4p3d2f pattern {88111/3111/111/11}
 Group   2 Type S   : 42s17p3d2f contracted to 6s5p3d2f pattern {131313111/77111/111/11}
 Group   3 Type O   : 19s6p3d2f contracted to 5s4p3d2f pattern {88111/3111/111/11}
 Group   4 Type N   : 19s6p3d2f contracted to 5s4p3d2f pattern {88111/3111/111/11}
 Group   5 Type H   : 6s3p2d contracted to 4s3p2d pattern {3111/111/11}

Atom   0C    basis set group =>   1
Atom   1C    basis set group =>   1
Atom   2C    basis set group =>   1
Atom   3C    basis set group =>   1
Atom   4C    basis set group =>   1
Atom   5C    basis set group =>   1
Atom   6S    basis set group =>   2
Atom   7O    basis set group =>   3
Atom   8O    basis set group =>   3
Atom   9N    basis set group =>   4
Atom  10H    basis set group =>   5
Atom  11H    basis set group =>   5
Atom  12C    basis set group =>   1
Atom  13C    basis set group =>   1
Atom  14C    basis set group =>   1
Atom  15C    basis set group =>   1
Atom  16N    basis set group =>   4
Atom  17C    basis set group =>   1
Atom  18C    basis set group =>   1
Atom  19H    basis set group =>   5
Atom  20H    basis set group =>   5
Atom  21H    basis set group =>   5
Atom  22H    basis set group =>   5
Atom  23H    basis set group =>   5
Atom  24H    basis set group =>   5
Atom  25H    basis set group =>   5
Atom  26H    basis set group =>   5
Atom  27H    basis set group =>   5
Atom  28H    basis set group =>   5
Atom  29H    basis set group =>   5
Atom  30H    basis set group =>   5
---------------------------------
AUXILIARY/J BASIS SET INFORMATION
---------------------------------
There are 5 groups of distinct atoms

 Group   1 Type C   : 12s5p4d2f1g contracted to 6s4p3d1f1g pattern {711111/2111/211/2/1}
 Group   2 Type S   : 14s5p5d2f1g contracted to 8s4p3d1f1g pattern {71111111/2111/311/2/1}
 Group   3 Type O   : 12s5p4d2f1g contracted to 6s4p3d1f1g pattern {711111/2111/211/2/1}
 Group   4 Type N   : 12s5p4d2f1g contracted to 6s4p3d1f1g pattern {711111/2111/211/2/1}
 Group   5 Type H   : 5s2p1d contracted to 3s1p1d pattern {311/2/1}

Atom   0C    basis set group =>   1
Atom   1C    basis set group =>   1
Atom   2C    basis set group =>   1
Atom   3C    basis set group =>   1
Atom   4C    basis set group =>   1
Atom   5C    basis set group =>   1
Atom   6S    basis set group =>   2
Atom   7O    basis set group =>   3
Atom   8O    basis set group =>   3
Atom   9N    basis set group =>   4
Atom  10H    basis set group =>   5
Atom  11H    basis set group =>   5
Atom  12C    basis set group =>   1
Atom  13C    basis set group =>   1
Atom  14C    basis set group =>   1
Atom  15C    basis set group =>   1
Atom  16N    basis set group =>   4
Atom  17C    basis set group =>   1
Atom  18C    basis set group =>   1
Atom  19H    basis set group =>   5
Atom  20H    basis set group =>   5
Atom  21H    basis set group =>   5
Atom  22H    basis set group =>   5
Atom  23H    basis set group =>   5
Atom  24H    basis set group =>   5
Atom  25H    basis set group =>   5
Atom  26H    basis set group =>   5
Atom  27H    basis set group =>   5
Atom  28H    basis set group =>   5
Atom  29H    basis set group =>   5
Atom  30H    basis set group =>   5
---------------------------------
AUXILIARY/C BASIS SET INFORMATION
---------------------------------
There are 5 groups of distinct atoms

 Group   1 Type C   : 9s7p6d4f2g contracted to 9s7p6d4f2g pattern {111111111/1111111/111111/1111/11}
 Group   2 Type S   : 11s9p8d6f3g contracted to 11s9p8d6f3g pattern {11111111111/111111111/11111111/111111/111}
 Group   3 Type O   : 9s7p6d4f2g contracted to 9s7p6d4f2g pattern {111111111/1111111/111111/1111/11}
 Group   4 Type N   : 9s7p6d4f2g contracted to 9s7p6d4f2g pattern {111111111/1111111/111111/1111/11}
 Group   5 Type H   : 5s4p3d2f contracted to 5s4p3d2f pattern {11111/1111/111/11}

Atom   0C    basis set group =>   1
Atom   1C    basis set group =>   1
Atom   2C    basis set group =>   1
Atom   3C    basis set group =>   1
Atom   4C    basis set group =>   1
Atom   5C    basis set group =>   1
Atom   6S    basis set group =>   2
Atom   7O    basis set group =>   3
Atom   8O    basis set group =>   3
Atom   9N    basis set group =>   4
Atom  10H    basis set group =>   5
Atom  11H    basis set group =>   5
Atom  12C    basis set group =>   1
Atom  13C    basis set group =>   1
Atom  14C    basis set group =>   1
Atom  15C    basis set group =>   1
Atom  16N    basis set group =>   4
Atom  17C    basis set group =>   1
Atom  18C    basis set group =>   1
Atom  19H    basis set group =>   5
Atom  20H    basis set group =>   5
Atom  21H    basis set group =>   5
Atom  22H    basis set group =>   5
Atom  23H    basis set group =>   5
Atom  24H    basis set group =>   5
Atom  25H    basis set group =>   5
Atom  26H    basis set group =>   5
Atom  27H    basis set group =>   5
Atom  28H    basis set group =>   5
Atom  29H    basis set group =>   5
Atom  30H    basis set group =>   5


           ************************************************************
           *        Program running with 8 parallel MPI-processes     *
           *              working on a common directory               *
           ************************************************************
------------------------------------------------------------------------------
                           ORCA GTO INTEGRAL CALCULATION
                           -- RI-GTO INTEGRALS CHOSEN --
------------------------------------------------------------------------------
------------------------------------------------------------------------------
                   ___                                                        
                  /   \      - P O W E R E D   B Y -                         
                 /     \                                                     
                 |  |  |   _    _      __       _____    __    __             
                 |  |  |  | |  | |    /  \     |  _  \  |  |  /  |          
                  \  \/   | |  | |   /    \    | | | |  |  | /  /          
                 / \  \   | |__| |  /  /\  \   | |_| |  |  |/  /          
                |  |  |   |  __  | /  /__\  \  |    /   |      \           
                |  |  |   | |  | | |   __   |  |    \   |  |\   \          
                \     /   | |  | | |  |  |  |  | |\  \  |  | \   \       
                 \___/    |_|  |_| |__|  |__|  |_| \__\ |__|  \__/        
                                                                              
                      - O R C A' S   B I G   F R I E N D -                    
                                      &                                       
                       - I N T E G R A L  F E E D E R -                       
                                                                              
 v1 FN, 2020, v2 2021                                                         
------------------------------------------------------------------------------


Reading SHARK input file HA.40.avtz.SHARKINP.tmp ... ok
----------------------
SHARK INTEGRAL PACKAGE
----------------------

Number of atoms                             ...     31
Number of basis functions                   ...   1229
Number of shells                            ...    477
Maximum angular momentum                    ...      3
Integral batch strategy                     ... SHARK/LIBINT Hybrid
RI-J (if used) integral strategy            ... SPLIT-RIJ (Revised 2003 algorithm where possible)
Printlevel                                  ...      1
Contraction scheme used                     ... PARTIAL GENERAL contraction
Coulomb Range Separation                    ... NOT USED
Exchange Range Separation                   ... NOT USED
Finite Nucleus Model                        ... NOT USED
Auxiliary Coulomb fitting basis             ... AVAILABLE
   # of basis functions in Aux-J            ...    989
   # of shells in Aux-J                     ...    327
   Maximum angular momentum in Aux-J        ...      4
Auxiliary J/K fitting basis                 ... NOT available
Auxiliary Correlation fitting basis         ... AVAILABLE
   # of basis functions in Aux-C            ...   2487
   # of shells in Aux-C                     ...    681
   Maximum angular momentum in Aux-C        ...      4
Auxiliary 'external' fitting basis          ... NOT available
Integral threshold                          ...     2.500000e-11
Primitive cut-off                           ...     2.500000e-12
Primitive pair pre-selection threshold      ...     2.500000e-12

Calculating pre-screening integrals         ... done (  0.1 sec) Dimension = 477
Calculating pre-screening integrals (ORCA)  ... done (  0.2 sec) Dimension = 366
Organizing shell pair data                  ... done (  0.8 sec)
Shell pair information
Total number of shell pairs                 ...    114003
Shell pairs after pre-screening             ...     83326
Total number of primitive shell pairs       ...    144543
Primitive shell pairs kept                  ...     96989
          la=0 lb=0:  18326 shell pairs
          la=1 lb=0:  21582 shell pairs
          la=1 lb=1:   5808 shell pairs
          la=2 lb=0:  14483 shell pairs
          la=2 lb=1:   7758 shell pairs
          la=2 lb=2:   2676 shell pairs
          la=3 lb=0:   6440 shell pairs
          la=3 lb=1:   3406 shell pairs
          la=3 lb=2:   2314 shell pairs
          la=3 lb=3:    533 shell pairs

Calculating one electron integrals          ... done (  0.2 sec)
Calculating RI/J V-Matrix + Cholesky decomp.... done (  0.1 sec)
Calculating RI/C V-Matrix + Cholesky decomp.... done (  0.4 sec)
Calculating Nuclear repulsion               ... done (  0.0 sec) ENN=   1365.200473222105 Eh

SHARK setup successfully completed in   2.7 seconds

Maximum memory used throughout the entire GTOINT-calculation: 111.9 MB


           ************************************************************
           *        Program running with 8 parallel MPI-processes     *
           *              working on a common directory               *
           ************************************************************
-------------------------------------------------------------------------------
                                 ORCA SCF
-------------------------------------------------------------------------------

------------
SCF SETTINGS
------------
Hamiltonian:
 Density Functional     Method          .... DFT(GTOs)
 Exchange Functional    Exchange        .... PBE
   PBE kappa parameter   XKappa         ....  0.804000
   PBE mue parameter    XMuePBE         ....  0.219520
 Correlation Functional Correlation     .... P86
 LDA part of GGA corr.  LDAOpt          .... VWN-5
 Gradients option       PostSCFGGA      .... off
 Hybrid DFT is turned on
   Fraction HF Exchange ScalHFX         ....  0.700000
   Scaling of DF-GGA-X  ScalDFX         ....  0.300000
   Scaling of DF-GGA-C  ScalDFC         ....  0.430000
   Scaling of DF-LDA-C  ScalLDAC        ....  0.430000
   Perturbative correction              ....  1.000000
   Density functional embedding theory  .... OFF
   NL short-range parameter             .... 14.200000
 RI-approximation to the Coulomb term is turned on
   Number of AuxJ basis functions       .... 989
   RIJ-COSX (HFX calculated with COS-X)).... on


General Settings:
 Integral files         IntName         .... HA.40.avtz
 Hartree-Fock type      HFTyp           .... RHF
 Total Charge           Charge          ....    0
 Multiplicity           Mult            ....    1
 Number of Electrons    NEL             ....  132
 Basis Dimension        Dim             .... 1108
 Nuclear Repulsion      ENuc            ....   1365.2004732221 Eh

Convergence Acceleration:
 DIIS                   CNVDIIS         .... on
   Start iteration      DIISMaxIt       ....    12
   Startup error        DIISStart       ....  0.200000
   # of expansion vecs  DIISMaxEq       ....     5
   Bias factor          DIISBfac        ....   1.050
   Max. coefficient     DIISMaxC        ....  10.000
 Trust-Rad. Augm. Hess. CNVTRAH         .... auto
   Auto Start mean grad. ratio tolernc. ....  1.125000
   Auto Start start iteration           ....    20
   Auto Start num. interpolation iter.  ....    10
   Max. Number of Micro iterations      ....    16
   Max. Number of Macro iterations      .... Maxiter - #DIIS iter
   Number of Davidson start vectors     ....     2
   Converg. threshold I  (grad. norm)   ....   1.000e-05
   Converg. threshold II (energy diff.) ....   1.000e-08
   Grad. Scal. Fac. for Micro threshold ....   0.100
   Minimum threshold for Micro iter.    ....   0.010
   NR start threshold (gradient norm)   ....   0.001
   Initial trust radius                 ....   0.400
   Minimum AH scaling param. (alpha)    ....   1.000
   Maximum AH scaling param. (alpha)    .... 1000.000
   Orbital update algorithm             .... Taylor
   White noise on init. David. guess    .... on
   Maximum white noise                  ....   0.010
   Quad. conv. algorithm                .... NR
 SOSCF                  CNVSOSCF        .... on
   Start iteration      SOSCFMaxIt      ....   150
   Startup grad/error   SOSCFStart      ....  0.003300
 Level Shifting         CNVShift        .... on
   Level shift para.    LevelShift      ....    0.2500
   Turn off err/grad.   ShiftErr        ....    0.0010
 Zerner damping         CNVZerner       .... off
 Static damping         CNVDamp         .... on
   Fraction old density DampFac         ....    0.7000
   Max. Damping (<1)    DampMax         ....    0.9800
   Min. Damping (>=0)   DampMin         ....    0.0000
   Turn off err/grad.   DampErr         ....    0.1000
 Fernandez-Rico         CNVRico         .... off

SCF Procedure:
 Maximum # iterations   MaxIter         ....   125
 SCF integral mode      SCFMode         .... Direct
   Integral package                     .... SHARK and LIBINT hybrid scheme
 Reset frequency        DirectResetFreq ....    20
 Integral Threshold     Thresh          ....  2.500e-11 Eh
 Primitive CutOff       TCut            ....  2.500e-12 Eh

Convergence Tolerance:
 Convergence Check Mode ConvCheckMode   .... Total+1el-Energy
 Convergence forced     ConvForced      .... 0
 Energy Change          TolE            ....  1.000e-08 Eh
 1-El. energy change                    ....  1.000e-05 Eh
 Orbital Gradient       TolG            ....  1.000e-05
 Orbital Rotation angle TolX            ....  1.000e-05
 DIIS Error             TolErr          ....  5.000e-07


Diagonalization of the overlap matrix:
Smallest eigenvalue                        ... 1.828e-07
Time for diagonalization                   ...    0.174 sec
Threshold for overlap eigenvalues          ... 1.000e-08
Number of eigenvalues below threshold      ... 0
Time for construction of square roots      ...    0.120 sec
Total time needed                          ...    0.301 sec

Time for model grid setup =    0.262 sec

------------------------------
INITIAL GUESS: MODEL POTENTIAL
------------------------------
Loading Hartree-Fock densities                     ... done
Calculating cut-offs                               ... done
Initializing the effective Hamiltonian             ... done
Setting up the integral package (SHARK)            ... done
Starting the Coulomb interaction                   ... done (   1.0 sec)
Reading the grid                                   ... done
Mapping shells                                     ... done
Starting the XC term evaluation                    ... done (   1.0 sec)
  promolecular density results
     # of electrons  =    132.001973113
     EX              =   -119.937501108
     EC              =     -0.056401119
     EX+EC           =   -119.993902227
Transforming the Hamiltonian                       ... done (   0.1 sec)
Diagonalizing the Hamiltonian                      ... done (   0.2 sec)
Back transforming the eigenvectors                 ... done (   0.0 sec)
Now organizing SCF variables                       ... done
                      ------------------
                      INITIAL GUESS DONE (   2.6 sec)
                      ------------------
-------------------
DFT GRID GENERATION
-------------------

General Integration Accuracy     IntAcc      ... 4.388
Radial Grid Type                 RadialGrid  ... OptM3 with GC (2021)
Angular Grid (max. ang.)         AngularGrid ... 4 (Lebedev-302)
Angular grid pruning method      GridPruning ... 4 (adaptive)
Weight generation scheme         WeightScheme... Becke
Basis function cutoff            BFCut       ... 1.0000e-11
Integration weight cutoff        WCut        ... 1.0000e-14
Angular grids for H and He will be reduced by one unit
Partially contracted basis set               ... off
Rotationally invariant grid construction     ... off

Total number of grid points                  ...   154260
Total number of batches                      ...     2424
Average number of points per batch           ...       63
Average number of grid points per atom       ...     4976
Time for grid setup =    1.056 sec

--------------------
COSX GRID GENERATION
--------------------

GRIDX 1
-------
General Integration Accuracy     IntAcc      ... 3.816
Radial Grid Type                 RadialGrid  ... OptM3 with GC (2021)
Angular Grid (max. ang.)         AngularGrid ... 1 (Lebedev-50)
Angular grid pruning method      GridPruning ... 4 (adaptive)
Weight generation scheme         WeightScheme... Becke
Basis function cutoff            BFCut       ... 1.0000e-11
Integration weight cutoff        WCut        ... 1.0000e-14
Angular grids for H and He will be reduced by one unit
Partially contracted basis set               ... on
Rotationally invariant grid construction     ... off

Total number of grid points                  ...    19260
Total number of batches                      ...      316
Average number of points per batch           ...       60
Average number of grid points per atom       ...      621
UseSFitting                                  ... on

GRIDX 2
-------
General Integration Accuracy     IntAcc      ... 4.020
Radial Grid Type                 RadialGrid  ... OptM3 with GC (2021)
Angular Grid (max. ang.)         AngularGrid ... 2 (Lebedev-110)
Angular grid pruning method      GridPruning ... 4 (adaptive)
Weight generation scheme         WeightScheme... Becke
Basis function cutoff            BFCut       ... 1.0000e-11
Integration weight cutoff        WCut        ... 1.0000e-14
Angular grids for H and He will be reduced by one unit
Partially contracted basis set               ... on
Rotationally invariant grid construction     ... off

Total number of grid points                  ...    45865
Total number of batches                      ...      733
Average number of points per batch           ...       62
Average number of grid points per atom       ...     1480
UseSFitting                                  ... on

GRIDX 3
-------
General Integration Accuracy     IntAcc      ... 4.338
Radial Grid Type                 RadialGrid  ... OptM3 with GC (2021)
Angular Grid (max. ang.)         AngularGrid ... 3 (Lebedev-194)
Angular grid pruning method      GridPruning ... 4 (adaptive)
Weight generation scheme         WeightScheme... Becke
Basis function cutoff            BFCut       ... 1.0000e-11
Integration weight cutoff        WCut        ... 1.0000e-14
Angular grids for H and He will be reduced by one unit
Partially contracted basis set               ... on
Rotationally invariant grid construction     ... off

Total number of grid points                  ...   102084
Total number of batches                      ...     1612
Average number of points per batch           ...       63
Average number of grid points per atom       ...     3293
UseSFitting                                  ... on

Time for X-Grid setup             =    2.953 sec

 re-compute Schwartz prescreening matrix in partically contracted basis (1) ...done (   0.193 sec)
--------------
SCF ITERATIONS
--------------
ITER       Energy         Delta-E        Max-DP      RMS-DP      [F,P]     Damp
               ***  Starting incremental Fock matrix formation  ***
  0  -1120.3900278033   0.000000000000 0.34134856  0.00351042  0.2844199 0.7000
  1  -1120.6046089136  -0.214581110296 0.25803713  0.00273011  0.1438624 0.7000
                               ***Turning on DIIS***
  2  -1120.7137446144  -0.109135700755 0.59613769  0.00632327  0.0701982 0.0000
  3  -1120.9049142608  -0.191169646402 0.13626458  0.00131535  0.0601239 0.0000
  4  -1120.9277192537  -0.022804992915 0.05696121  0.00043710  0.0091277 0.0000
  5  -1120.9286367011  -0.000917447396 0.03014358  0.00022889  0.0057570 0.0000
                      *** Initiating the SOSCF procedure ***
                           *** Shutting down DIIS ***
                      *** Re-Reading the Fockian *** 
                      *** Removing any level shift *** 
ITER      Energy       Delta-E        Grad      Rot      Max-DP    RMS-DP
  6  -1120.92884753  -0.0002108247  0.001068  0.001068  0.061484  0.000374
               *** Restarting incremental Fock matrix formation ***
  7  -1120.92890958  -0.0000620587  0.000621  0.001852  0.304684  0.003034
  8  -1120.92892737  -0.0000177893  0.000261  0.001381  0.069130  0.000736
  9  -1120.92892981  -0.0000024315  0.000083  0.000173  0.051685  0.000569
 10  -1120.92893117  -0.0000013609  0.000043  0.000136  0.026008  0.000229
 11  -1120.92893133  -0.0000001589  0.000024  0.000041  0.038179  0.000252
 12  -1120.92893131   0.0000000110  0.000005  0.000016  0.046445  0.000302
 13  -1120.92893126   0.0000000503  0.000003  0.000011  0.019398  0.000198
                  ***Gradient check signals convergence***
              ***Rediagonalizing the Fockian in SOSCF/NRSCF***

               *****************************************************
               *                     SUCCESS                       *
               *           SCF CONVERGED AFTER  14 CYCLES          *
               *****************************************************

Old exchange energy                            =    -85.500668204 Eh
New exchange energy                            =    -85.500190792 Eh
Exchange energy change after final integration =      0.000477412 Eh
Total energy after final integration           =  -1120.928453797 Eh
Final COS-X integration done in                =    59.606 sec

----------------
TOTAL SCF ENERGY
----------------

Total Energy       :        -1120.92845380 Eh          -30502.01392 eV

Components:
Nuclear Repulsion  :         1365.20047322 Eh           37148.99349 eV
Electronic Energy  :        -2486.12892702 Eh          -67651.00741 eV
One Electron Energy:        -4245.05197079 Eh         -115513.73673 eV
Two Electron Energy:         1758.92304378 Eh           47862.72932 eV
Max COSX asymmetry :            0.00003757 Eh               0.00102 eV

Virial components:
Potential Energy   :        -2238.50218001 Eh          -60912.74106 eV
Kinetic Energy     :         1117.57372621 Eh           30410.72714 eV
Virial Ratio       :            2.00300180


DFT components:
N(Alpha)           :       66.000161414660 electrons
N(Beta)            :       66.000161414660 electrons
N(Total)           :      132.000322829320 electrons
E(X)               :      -36.491349138889 Eh       
E(C)               :       -2.160850519129 Eh       
E(XC)              :      -38.652199658018 Eh       
DFET-embed. en.    :        0.000000000000 Eh       

---------------
SCF CONVERGENCE
---------------

  Last Energy change         ...    5.5358e-08  Tolerance :   1.0000e-08
  Last MAX-Density change    ...    3.1086e-15  Tolerance :   1.0000e-07
  Last RMS-Density change    ...    2.5649e-17  Tolerance :   5.0000e-09
  Last Orbital Gradient      ...    1.8532e-06  Tolerance :   1.0000e-05
  Last Orbital Rotation      ...    1.2550e-05  Tolerance :   1.0000e-05

             **** THE GBW FILE WAS UPDATED (HA.40.avtz.gbw) ****
             **** DENSITY HA.40.avtz.scfp WAS UPDATED ****
             **** ENERGY FILE WAS UPDATED (HA.40.avtz.en.tmp) ****
             **** THE GBW FILE WAS UPDATED (HA.40.avtz.gbw) ****
             **** DENSITY HA.40.avtz.scfp WAS UPDATED ****
----------------
ORBITAL ENERGIES
----------------

  NO   OCC          E(Eh)            E(eV) 
   0   2.0000     -91.037724     -2477.2624 
   1   2.0000     -20.012547      -544.5691 
   2   2.0000     -20.011739      -544.5471 
   3   2.0000     -15.134372      -411.8272 
   4   2.0000     -15.114569      -411.2883 
   5   2.0000     -10.891477      -296.3721 
   6   2.0000     -10.881196      -296.0924 
   7   2.0000     -10.876893      -295.9753 
   8   2.0000     -10.865704      -295.6708 
   9   2.0000     -10.864888      -295.6486 
  10   2.0000     -10.864851      -295.6476 
  11   2.0000     -10.864071      -295.6264 
  12   2.0000     -10.859878      -295.5123 
  13   2.0000     -10.855012      -295.3799 
  14   2.0000     -10.854795      -295.3740 
  15   2.0000     -10.846663      -295.1527 
  16   2.0000     -10.845445      -295.1196 
  17   2.0000      -8.780677      -238.9344 
  18   2.0000      -6.566877      -178.6938 
  19   2.0000      -6.565321      -178.6515 
  20   2.0000      -6.564023      -178.6161 
  21   2.0000      -1.335142       -36.3311 
  22   2.0000      -1.220032       -33.1988 
  23   2.0000      -1.157734       -31.5035 
  24   2.0000      -1.108302       -30.1584 
  25   2.0000      -1.083664       -29.4880 
  26   2.0000      -1.025620       -27.9085 
  27   2.0000      -0.973332       -26.4857 
  28   2.0000      -0.936365       -25.4798 
  29   2.0000      -0.915724       -24.9181 
  30   2.0000      -0.883498       -24.0412 
  31   2.0000      -0.825243       -22.4560 
  32   2.0000      -0.817920       -22.2567 
  33   2.0000      -0.781362       -21.2619 
  34   2.0000      -0.761450       -20.7201 
  35   2.0000      -0.724441       -19.7130 
  36   2.0000      -0.671807       -18.2808 
  37   2.0000      -0.657359       -17.8876 
  38   2.0000      -0.652087       -17.7442 
  39   2.0000      -0.638757       -17.3815 
  40   2.0000      -0.627701       -17.0806 
  41   2.0000      -0.611143       -16.6300 
  42   2.0000      -0.597376       -16.2554 
  43   2.0000      -0.583852       -15.8874 
  44   2.0000      -0.574933       -15.6447 
  45   2.0000      -0.568450       -15.4683 
  46   2.0000      -0.552506       -15.0344 
  47   2.0000      -0.541562       -14.7366 
  48   2.0000      -0.527081       -14.3426 
  49   2.0000      -0.517365       -14.0782 
  50   2.0000      -0.504283       -13.7222 
  51   2.0000      -0.500524       -13.6199 
  52   2.0000      -0.494171       -13.4471 
  53   2.0000      -0.479185       -13.0393 
  54   2.0000      -0.470859       -12.8127 
  55   2.0000      -0.455744       -12.4014 
  56   2.0000      -0.446225       -12.1424 
  57   2.0000      -0.440142       -11.9769 
  58   2.0000      -0.435081       -11.8392 
  59   2.0000      -0.422999       -11.5104 
  60   2.0000      -0.414777       -11.2867 
  61   2.0000      -0.397740       -10.8231 
  62   2.0000      -0.378222       -10.2919 
  63   2.0000      -0.334442        -9.1006 
  64   2.0000      -0.319205        -8.6860 
  65   2.0000      -0.277822        -7.5599 
  66   0.0000       0.000664         0.0181 
  67   0.0000       0.009880         0.2688 
  68   0.0000       0.017732         0.4825 
  69   0.0000       0.018718         0.5094 
  70   0.0000       0.025944         0.7060 
  71   0.0000       0.030877         0.8402 
  72   0.0000       0.034685         0.9438 
  73   0.0000       0.035887         0.9765 
  74   0.0000       0.040299         1.0966 
  75   0.0000       0.045039         1.2256 
  76   0.0000       0.047877         1.3028 
  77   0.0000       0.051126         1.3912 
  78   0.0000       0.055551         1.5116 
  79   0.0000       0.062553         1.7022 
  80   0.0000       0.063399         1.7252 
  81   0.0000       0.070625         1.9218 
  82   0.0000       0.072241         1.9658 
  83   0.0000       0.075984         2.0676 
  84   0.0000       0.084665         2.3039 
  85   0.0000       0.086812         2.3623 
  86   0.0000       0.090246         2.4557 
  87   0.0000       0.092865         2.5270 
  88   0.0000       0.097093         2.6420 
  89   0.0000       0.097830         2.6621 
  90   0.0000       0.100553         2.7362 
  91   0.0000       0.102804         2.7974 
  92   0.0000       0.104648         2.8476 
  93   0.0000       0.110168         2.9978 
  94   0.0000       0.111054         3.0219 
  95   0.0000       0.115644         3.1468 
  96   0.0000       0.116347         3.1660 
  97   0.0000       0.118846         3.2340 
  98   0.0000       0.121075         3.2946 
  99   0.0000       0.124046         3.3755 
 100   0.0000       0.125089         3.4039 
 101   0.0000       0.131932         3.5901 
 102   0.0000       0.136611         3.7174 
 103   0.0000       0.138397         3.7660 
 104   0.0000       0.138673         3.7735 
 105   0.0000       0.139882         3.8064 
 106   0.0000       0.144207         3.9241 
 107   0.0000       0.147359         4.0098 
 108   0.0000       0.148986         4.0541 
 109   0.0000       0.153934         4.1888 
 110   0.0000       0.155142         4.2216 
 111   0.0000       0.157668         4.2904 
 112   0.0000       0.163173         4.4402 
 113   0.0000       0.165622         4.5068 
 114   0.0000       0.173332         4.7166 
 115   0.0000       0.176211         4.7949 
 116   0.0000       0.178048         4.8449 
 117   0.0000       0.181660         4.9432 
 118   0.0000       0.182088         4.9549 
 119   0.0000       0.185061         5.0358 
 120   0.0000       0.189897         5.1674 
 121   0.0000       0.192172         5.2293 
 122   0.0000       0.197589         5.3767 
 123   0.0000       0.201179         5.4744 
 124   0.0000       0.203382         5.5343 
 125   0.0000       0.204021         5.5517 
 126   0.0000       0.210609         5.7309 
 127   0.0000       0.211885         5.7657 
 128   0.0000       0.213557         5.8112 
 129   0.0000       0.215963         5.8767 
 130   0.0000       0.221687         6.0324 
 131   0.0000       0.223773         6.0892 
 132   0.0000       0.225263         6.1297 
 133   0.0000       0.228774         6.2253 
 134   0.0000       0.230574         6.2742 
 135   0.0000       0.233404         6.3512 
 136   0.0000       0.235720         6.4143 
 137   0.0000       0.238548         6.4912 
 138   0.0000       0.239061         6.5052 
 139   0.0000       0.243382         6.6228 
 140   0.0000       0.246473         6.7069 
 141   0.0000       0.247917         6.7462 
 142   0.0000       0.252715         6.8767 
 143   0.0000       0.255057         6.9405 
 144   0.0000       0.257797         7.0150 
 145   0.0000       0.259960         7.0739 
 146   0.0000       0.263771         7.1776 
 147   0.0000       0.269542         7.3346 
 148   0.0000       0.270393         7.3578 
 149   0.0000       0.274107         7.4588 
 150   0.0000       0.278105         7.5676 
 151   0.0000       0.281481         7.6595 
 152   0.0000       0.283295         7.7088 
 153   0.0000       0.285908         7.7800 
 154   0.0000       0.289062         7.8658 
 155   0.0000       0.293681         7.9915 
 156   0.0000       0.295645         8.0449 
 157   0.0000       0.299887         8.1603 
 158   0.0000       0.302447         8.2300 
 159   0.0000       0.304923         8.2974 
 160   0.0000       0.309476         8.4213 
 161   0.0000       0.311825         8.4852 
 162   0.0000       0.314374         8.5545 
 163   0.0000       0.316433         8.6106 
 164   0.0000       0.318744         8.6735 
 165   0.0000       0.325313         8.8522 
 166   0.0000       0.326764         8.8917 
 167   0.0000       0.330305         8.9880 
 168   0.0000       0.332091         9.0366 
 169   0.0000       0.333653         9.0792 
 170   0.0000       0.336402         9.1540 
 171   0.0000       0.340767         9.2727 
 172   0.0000       0.342297         9.3144 
 173   0.0000       0.346487         9.4284 
 174   0.0000       0.350911         9.5488 
 175   0.0000       0.355026         9.6607 
 176   0.0000       0.357414         9.7257 
 177   0.0000       0.359460         9.7814 
 178   0.0000       0.364703         9.9241 
 179   0.0000       0.366811         9.9814 
 180   0.0000       0.369685        10.0596 
 181   0.0000       0.372378        10.1329 
 182   0.0000       0.375700        10.2233 
 183   0.0000       0.380035        10.3413 
 184   0.0000       0.381732        10.3874 
 185   0.0000       0.384536        10.4638 
 186   0.0000       0.386317        10.5122 
 187   0.0000       0.390137        10.6162 
 188   0.0000       0.391139        10.6434 
 189   0.0000       0.394680        10.7398 
 190   0.0000       0.397393        10.8136 
 191   0.0000       0.399226        10.8635 
 192   0.0000       0.401770        10.9327 
 193   0.0000       0.408374        11.1124 
 194   0.0000       0.409711        11.1488 
 195   0.0000       0.414630        11.2827 
 196   0.0000       0.417246        11.3539 
 197   0.0000       0.421068        11.4578 
 198   0.0000       0.424336        11.5468 
 199   0.0000       0.428796        11.6681 
 200   0.0000       0.431569        11.7436 
 201   0.0000       0.433951        11.8084 
 202   0.0000       0.437140        11.8952 
 203   0.0000       0.441645        12.0178 
 204   0.0000       0.444586        12.0978 
 205   0.0000       0.446956        12.1623 
 206   0.0000       0.448138        12.1945 
 207   0.0000       0.452011        12.2998 
 208   0.0000       0.454985        12.3808 
 209   0.0000       0.457739        12.4557 
 210   0.0000       0.458758        12.4834 
 211   0.0000       0.459661        12.5080 
 212   0.0000       0.462456        12.5841 
 213   0.0000       0.465138        12.6571 
 214   0.0000       0.467977        12.7343 
 215   0.0000       0.471963        12.8428 
 216   0.0000       0.474499        12.9118 
 217   0.0000       0.477081        12.9820 
 218   0.0000       0.479199        13.0397 
 219   0.0000       0.484750        13.1907 
 220   0.0000       0.485915        13.2224 
 221   0.0000       0.489864        13.3299 
 222   0.0000       0.491380        13.3711 
 223   0.0000       0.494840        13.4653 
 224   0.0000       0.498698        13.5703 
 225   0.0000       0.500469        13.6185 
 226   0.0000       0.503570        13.7028 
 227   0.0000       0.505088        13.7441 
 228   0.0000       0.508661        13.8414 
 229   0.0000       0.510885        13.9019 
 230   0.0000       0.513148        13.9635 
 231   0.0000       0.516535        14.0556 
 232   0.0000       0.518571        14.1110 
 233   0.0000       0.521545        14.1920 
 234   0.0000       0.523490        14.2449 
 235   0.0000       0.525367        14.2960 
 236   0.0000       0.530995        14.4491 
 237   0.0000       0.533560        14.5189 
 238   0.0000       0.539583        14.6828 
 239   0.0000       0.540052        14.6956 
 240   0.0000       0.541395        14.7321 
 241   0.0000       0.546800        14.8792 
 242   0.0000       0.550483        14.9794 
 243   0.0000       0.553800        15.0697 
 244   0.0000       0.557894        15.1811 
 245   0.0000       0.560744        15.2586 
 246   0.0000       0.564505        15.3610 
 247   0.0000       0.569229        15.4895 
 248   0.0000       0.571835        15.5604 
 249   0.0000       0.576165        15.6782 
 250   0.0000       0.578625        15.7452 
 251   0.0000       0.583929        15.8895 
 252   0.0000       0.587104        15.9759 
 253   0.0000       0.595432        16.2025 
 254   0.0000       0.597301        16.2534 
 255   0.0000       0.603792        16.4300 
 256   0.0000       0.606115        16.4932 
 257   0.0000       0.613158        16.6849 
 258   0.0000       0.614883        16.7318 
 259   0.0000       0.622082        16.9277 
 260   0.0000       0.626031        17.0352 
 261   0.0000       0.628554        17.1038 
 262   0.0000       0.633400        17.2357 
 263   0.0000       0.644961        17.5503 
 264   0.0000       0.645610        17.5680 
 265   0.0000       0.649295        17.6682 
 266   0.0000       0.652886        17.7659 
 267   0.0000       0.658658        17.9230 
 268   0.0000       0.660925        17.9847 
 269   0.0000       0.666498        18.1363 
 270   0.0000       0.672254        18.2930 
 271   0.0000       0.675869        18.3913 
 272   0.0000       0.681080        18.5331 
 273   0.0000       0.681945        18.5567 
 274   0.0000       0.684698        18.6316 
 275   0.0000       0.689900        18.7731 
 276   0.0000       0.692480        18.8433 
 277   0.0000       0.696295        18.9471 
 278   0.0000       0.702360        19.1122 
 279   0.0000       0.710122        19.3234 
 280   0.0000       0.712695        19.3934 
 281   0.0000       0.718186        19.5428 
 282   0.0000       0.720541        19.6069 
 283   0.0000       0.725478        19.7413 
 284   0.0000       0.729331        19.8461 
 285   0.0000       0.735463        20.0130 
 286   0.0000       0.738075        20.0840 
 287   0.0000       0.743622        20.2350 
 288   0.0000       0.749765        20.4022 
 289   0.0000       0.755402        20.5555 
 290   0.0000       0.758420        20.6377 
 291   0.0000       0.760679        20.6991 
 292   0.0000       0.768611        20.9150 
 293   0.0000       0.771056        20.9815 
 294   0.0000       0.773120        21.0377 
 295   0.0000       0.777807        21.1652 
 296   0.0000       0.781878        21.2760 
 297   0.0000       0.782686        21.2980 
 298   0.0000       0.786711        21.4075 
 299   0.0000       0.791548        21.5391 
 300   0.0000       0.794701        21.6249 
 301   0.0000       0.803111        21.8538 
 302   0.0000       0.804243        21.8846 
 303   0.0000       0.807011        21.9599 
 304   0.0000       0.807875        21.9834 
 305   0.0000       0.811201        22.0739 
 306   0.0000       0.811824        22.0909 
 307   0.0000       0.818394        22.2696 
 308   0.0000       0.822650        22.3855 
 309   0.0000       0.825690        22.4682 
 310   0.0000       0.832161        22.6442 
 311   0.0000       0.836614        22.7654 
 312   0.0000       0.840953        22.8835 
 313   0.0000       0.845571        23.0092 
 314   0.0000       0.846662        23.0388 
 315   0.0000       0.849283        23.1102 
 316   0.0000       0.855028        23.2665 
 317   0.0000       0.856695        23.3119 
 318   0.0000       0.862064        23.4579 
 319   0.0000       0.864527        23.5250 
 320   0.0000       0.866799        23.5868 
 321   0.0000       0.869624        23.6637 
 322   0.0000       0.875739        23.8301 
 323   0.0000       0.879749        23.9392 
 324   0.0000       0.881167        23.9778 
 325   0.0000       0.885777        24.1032 
 326   0.0000       0.892656        24.2904 
 327   0.0000       0.895298        24.3623 
 328   0.0000       0.897537        24.4232 
 329   0.0000       0.898893        24.4601 
 330   0.0000       0.900112        24.4933 
 331   0.0000       0.906706        24.6727 
 332   0.0000       0.908162        24.7124 
 333   0.0000       0.910767        24.7832 
 334   0.0000       0.912832        24.8394 
 335   0.0000       0.917987        24.9797 
 336   0.0000       0.924359        25.1531 
 337   0.0000       0.928032        25.2530 
 338   0.0000       0.930418        25.3180 
 339   0.0000       0.934100        25.4182 
 340   0.0000       0.935760        25.4633 
 341   0.0000       0.939814        25.5736 
 342   0.0000       0.941834        25.6286 
 343   0.0000       0.944410        25.6987 
 344   0.0000       0.948740        25.8165 
 345   0.0000       0.953312        25.9409 
 346   0.0000       0.960175        26.1277 
 347   0.0000       0.962228        26.1836 
 348   0.0000       0.966958        26.3123 
 349   0.0000       0.973341        26.4860 
 350   0.0000       0.975767        26.5520 
 351   0.0000       0.977794        26.6071 
 352   0.0000       0.981597        26.7106 
 353   0.0000       0.983776        26.7699 
 354   0.0000       0.986461        26.8430 
 355   0.0000       0.990188        26.9444 
 356   0.0000       0.991261        26.9736 
 357   0.0000       1.001999        27.2658 
 358   0.0000       1.003163        27.2975 
 359   0.0000       1.012420        27.5494 
 360   0.0000       1.013920        27.5902 
 361   0.0000       1.016476        27.6597 
 362   0.0000       1.017173        27.6787 
 363   0.0000       1.021454        27.7952 
 364   0.0000       1.022760        27.8307 
 365   0.0000       1.025935        27.9171 
 366   0.0000       1.029355        28.0102 
 367   0.0000       1.035031        28.1646 
 368   0.0000       1.043263        28.3886 
 369   0.0000       1.044565        28.4241 
 370   0.0000       1.048769        28.5385 
 371   0.0000       1.052464        28.6390 
 372   0.0000       1.057416        28.7738 
 373   0.0000       1.060395        28.8548 
 374   0.0000       1.062024        28.8991 
 375   0.0000       1.065670        28.9984 
 376   0.0000       1.067356        29.0442 
 377   0.0000       1.070473        29.1291 
 378   0.0000       1.075415        29.2635 
 379   0.0000       1.080943        29.4139 
 380   0.0000       1.082521        29.4569 
 381   0.0000       1.083946        29.4957 
 382   0.0000       1.088278        29.6135 
 383   0.0000       1.090686        29.6791 
 384   0.0000       1.093891        29.7663 
 385   0.0000       1.100941        29.9581 
 386   0.0000       1.105367        30.0786 
 387   0.0000       1.106039        30.0968 
 388   0.0000       1.114642        30.3309 
 389   0.0000       1.116814        30.3901 
 390   0.0000       1.120080        30.4789 
 391   0.0000       1.124573        30.6012 
 392   0.0000       1.128229        30.7007 
 393   0.0000       1.132377        30.8135 
 394   0.0000       1.134964        30.8839 
 395   0.0000       1.137301        30.9475 
 396   0.0000       1.146361        31.1941 
 397   0.0000       1.149212        31.2716 
 398   0.0000       1.153483        31.3879 
 399   0.0000       1.157447        31.4957 
 400   0.0000       1.162079        31.6218 
 401   0.0000       1.162260        31.6267 
 402   0.0000       1.173159        31.9233 
 403   0.0000       1.174408        31.9573 
 404   0.0000       1.176235        32.0070 
 405   0.0000       1.186076        32.2748 
 406   0.0000       1.186336        32.2819 
 407   0.0000       1.190218        32.3875 
 408   0.0000       1.195346        32.5270 
 409   0.0000       1.201136        32.6846 
 410   0.0000       1.203439        32.7472 
 411   0.0000       1.205371        32.7998 
 412   0.0000       1.207238        32.8506 
 413   0.0000       1.211212        32.9587 
 414   0.0000       1.215989        33.0888 
 415   0.0000       1.220825        33.2203 
 416   0.0000       1.221793        33.2467 
 417   0.0000       1.227389        33.3990 
 418   0.0000       1.232942        33.5501 
 419   0.0000       1.238670        33.7059 
 420   0.0000       1.241583        33.7852 
 421   0.0000       1.244910        33.8757 
 422   0.0000       1.246355        33.9150 
 423   0.0000       1.251228        34.0477 
 424   0.0000       1.258475        34.2448 
 425   0.0000       1.260135        34.2900 
 426   0.0000       1.266440        34.4616 
 427   0.0000       1.272111        34.6159 
 428   0.0000       1.274378        34.6776 
 429   0.0000       1.277179        34.7538 
 430   0.0000       1.279235        34.8098 
 431   0.0000       1.288635        35.0656 
 432   0.0000       1.295397        35.2495 
 433   0.0000       1.296515        35.2800 
 434   0.0000       1.302391        35.4399 
 435   0.0000       1.308394        35.6032 
 436   0.0000       1.312363        35.7112 
 437   0.0000       1.318512        35.8785 
 438   0.0000       1.324995        36.0549 
 439   0.0000       1.328527        36.1510 
 440   0.0000       1.332217        36.2515 
 441   0.0000       1.337923        36.4067 
 442   0.0000       1.342827        36.5402 
 443   0.0000       1.345057        36.6009 
 444   0.0000       1.353181        36.8219 
 445   0.0000       1.356571        36.9142 
 446   0.0000       1.365138        37.1473 
 447   0.0000       1.368197        37.2305 
 448   0.0000       1.373302        37.3695 
 449   0.0000       1.376721        37.4625 
 450   0.0000       1.380544        37.5665 
 451   0.0000       1.384370        37.6706 
 452   0.0000       1.388582        37.7852 
 453   0.0000       1.394619        37.9495 
 454   0.0000       1.399372        38.0788 
 455   0.0000       1.405257        38.2390 
 456   0.0000       1.413191        38.4549 
 457   0.0000       1.416718        38.5509 
 458   0.0000       1.419148        38.6170 
 459   0.0000       1.424033        38.7499 
 460   0.0000       1.431452        38.9518 
 461   0.0000       1.433100        38.9966 
 462   0.0000       1.434224        39.0272 
 463   0.0000       1.438604        39.1464 
 464   0.0000       1.445038        39.3215 
 465   0.0000       1.448705        39.4213 
 466   0.0000       1.458268        39.6815 
 467   0.0000       1.466424        39.9034 
 468   0.0000       1.471386        40.0385 
 469   0.0000       1.473895        40.1067 
 470   0.0000       1.478283        40.2261 
 471   0.0000       1.480548        40.2878 
 472   0.0000       1.483200        40.3599 
 473   0.0000       1.488093        40.4931 
 474   0.0000       1.493737        40.6467 
 475   0.0000       1.495639        40.6984 
 476   0.0000       1.498075        40.7647 
 477   0.0000       1.504913        40.9508 
 478   0.0000       1.509588        41.0780 
 479   0.0000       1.512910        41.1684 
 480   0.0000       1.523169        41.4475 
 481   0.0000       1.524618        41.4870 
 482   0.0000       1.537185        41.8289 
 483   0.0000       1.542757        41.9806 
 484   0.0000       1.545548        42.0565 
 485   0.0000       1.550491        42.1910 
 486   0.0000       1.553357        42.2690 
 487   0.0000       1.558413        42.4066 
 488   0.0000       1.565699        42.6048 
 489   0.0000       1.568945        42.6932 
 490   0.0000       1.571377        42.7593 
 491   0.0000       1.578405        42.9506 
 492   0.0000       1.581455        43.0336 
 493   0.0000       1.591563        43.3086 
 494   0.0000       1.597167        43.4611 
 495   0.0000       1.597973        43.4831 
 496   0.0000       1.606719        43.7210 
 497   0.0000       1.611369        43.8476 
 498   0.0000       1.619675        44.0736 
 499   0.0000       1.620489        44.0958 
 500   0.0000       1.625477        44.2315 
 501   0.0000       1.629022        44.3279 
 502   0.0000       1.633645        44.4537 
 503   0.0000       1.637505        44.5588 
 504   0.0000       1.640081        44.6289 
 505   0.0000       1.648096        44.8470 
 506   0.0000       1.654620        45.0245 
 507   0.0000       1.657806        45.1112 
 508   0.0000       1.663992        45.2795 
 509   0.0000       1.667261        45.3685 
 510   0.0000       1.676210        45.6120 
 511   0.0000       1.683106        45.7997 
 512   0.0000       1.687079        45.9078 
 513   0.0000       1.689796        45.9817 
 514   0.0000       1.696586        46.1665 
 515   0.0000       1.700678        46.2778 
 516   0.0000       1.708487        46.4903 
 517   0.0000       1.712953        46.6118 
 518   0.0000       1.716716        46.7142 
 519   0.0000       1.719726        46.7961 
 520   0.0000       1.723888        46.9094 
 521   0.0000       1.727600        47.0104 
 522   0.0000       1.736858        47.2623 
 523   0.0000       1.740886        47.3719 
 524   0.0000       1.752199        47.6798 
 525   0.0000       1.756038        47.7842 
 526   0.0000       1.760956        47.9181 
 527   0.0000       1.765825        48.0505 
 528   0.0000       1.767436        48.0944 
 529   0.0000       1.769033        48.1378 
 530   0.0000       1.778689        48.4006 
 531   0.0000       1.782452        48.5030 
 532   0.0000       1.786627        48.6166 
 533   0.0000       1.797622        48.9158 
 534   0.0000       1.804552        49.1044 
 535   0.0000       1.807904        49.1956 
 536   0.0000       1.812715        49.3265 
 537   0.0000       1.818075        49.4723 
 538   0.0000       1.823267        49.6136 
 539   0.0000       1.827599        49.7315 
 540   0.0000       1.831139        49.8278 
 541   0.0000       1.838852        50.0377 
 542   0.0000       1.843801        50.1724 
 543   0.0000       1.848008        50.2869 
 544   0.0000       1.857805        50.5534 
 545   0.0000       1.868749        50.8513 
 546   0.0000       1.871446        50.9246 
 547   0.0000       1.878841        51.1259 
 548   0.0000       1.879737        51.1503 
 549   0.0000       1.883477        51.2520 
 550   0.0000       1.886902        51.3452 
 551   0.0000       1.903007        51.7834 
 552   0.0000       1.908160        51.9237 
 553   0.0000       1.908334        51.9284 
 554   0.0000       1.917601        52.1806 
 555   0.0000       1.924171        52.3594 
 556   0.0000       1.930791        52.5395 
 557   0.0000       1.944583        52.9148 
 558   0.0000       1.949203        53.0405 
 559   0.0000       1.953090        53.1463 
 560   0.0000       1.962123        53.3921 
 561   0.0000       1.965156        53.4746 
 562   0.0000       1.967988        53.5517 
 563   0.0000       1.975583        53.7584 
 564   0.0000       1.978491        53.8375 
 565   0.0000       1.988289        54.1041 
 566   0.0000       1.995619        54.3036 
 567   0.0000       1.995713        54.3061 
 568   0.0000       2.000270        54.4301 
 569   0.0000       2.009145        54.6716 
 570   0.0000       2.014477        54.8167 
 571   0.0000       2.018567        54.9280 
 572   0.0000       2.026981        55.1570 
 573   0.0000       2.032723        55.3132 
 574   0.0000       2.039977        55.5106 
 575   0.0000       2.048872        55.7526 
 576   0.0000       2.053437        55.8769 
 577   0.0000       2.062141        56.1137 
 578   0.0000       2.065200        56.1970 
 579   0.0000       2.066545        56.2336 
 580   0.0000       2.071209        56.3605 
 581   0.0000       2.074697        56.4554 
 582   0.0000       2.078841        56.5682 
 583   0.0000       2.086854        56.7862 
 584   0.0000       2.091618        56.9158 
 585   0.0000       2.093334        56.9625 
 586   0.0000       2.100450        57.1562 
 587   0.0000       2.107415        57.3457 
 588   0.0000       2.112375        57.4806 
 589   0.0000       2.126452        57.8637 
 590   0.0000       2.131220        57.9934 
 591   0.0000       2.131624        58.0044 
 592   0.0000       2.137522        58.1649 
 593   0.0000       2.139906        58.2298 
 594   0.0000       2.143411        58.3252 
 595   0.0000       2.145918        58.3934 
 596   0.0000       2.154095        58.6159 
 597   0.0000       2.166670        58.9581 
 598   0.0000       2.173608        59.1469 
 599   0.0000       2.176067        59.2138 
 600   0.0000       2.183927        59.4277 
 601   0.0000       2.187770        59.5323 
 602   0.0000       2.193828        59.6971 
 603   0.0000       2.198630        59.8278 
 604   0.0000       2.207936        60.0810 
 605   0.0000       2.211342        60.1737 
 606   0.0000       2.217917        60.3526 
 607   0.0000       2.220122        60.4126 
 608   0.0000       2.236130        60.8482 
 609   0.0000       2.239563        60.9416 
 610   0.0000       2.243063        61.0368 
 611   0.0000       2.246083        61.1190 
 612   0.0000       2.253045        61.3085 
 613   0.0000       2.257907        61.4408 
 614   0.0000       2.265530        61.6482 
 615   0.0000       2.277059        61.9619 
 616   0.0000       2.282776        62.1175 
 617   0.0000       2.292543        62.3833 
 618   0.0000       2.294671        62.4412 
 619   0.0000       2.299557        62.5741 
 620   0.0000       2.303773        62.6888 
 621   0.0000       2.305097        62.7249 
 622   0.0000       2.310221        62.8643 
 623   0.0000       2.319216        63.1091 
 624   0.0000       2.324681        63.2578 
 625   0.0000       2.332984        63.4837 
 626   0.0000       2.344546        63.7983 
 627   0.0000       2.351332        63.9830 
 628   0.0000       2.354111        64.0586 
 629   0.0000       2.363052        64.3019 
 630   0.0000       2.364534        64.3423 
 631   0.0000       2.377846        64.7045 
 632   0.0000       2.383571        64.8603 
 633   0.0000       2.388043        64.9820 
 634   0.0000       2.398380        65.2632 
 635   0.0000       2.402026        65.3625 
 636   0.0000       2.410611        65.5960 
 637   0.0000       2.418708        65.8164 
 638   0.0000       2.426170        66.0194 
 639   0.0000       2.429096        66.0991 
 640   0.0000       2.437367        66.3241 
 641   0.0000       2.440363        66.4056 
 642   0.0000       2.445630        66.5490 
 643   0.0000       2.452902        66.7469 
 644   0.0000       2.456279        66.8387 
 645   0.0000       2.471785        67.2607 
 646   0.0000       2.477514        67.4166 
 647   0.0000       2.486054        67.6490 
 648   0.0000       2.494377        67.8755 
 649   0.0000       2.502994        68.1099 
 650   0.0000       2.507022        68.2195 
 651   0.0000       2.516623        68.4808 
 652   0.0000       2.523150        68.6584 
 653   0.0000       2.526002        68.7360 
 654   0.0000       2.534448        68.9658 
 655   0.0000       2.548175        69.3394 
 656   0.0000       2.556508        69.5661 
 657   0.0000       2.567633        69.8688 
 658   0.0000       2.573878        70.0388 
 659   0.0000       2.576460        70.1090 
 660   0.0000       2.582445        70.2719 
 661   0.0000       2.585724        70.3611 
 662   0.0000       2.601347        70.7862 
 663   0.0000       2.606710        70.9322 
 664   0.0000       2.618770        71.2604 
 665   0.0000       2.622605        71.3647 
 666   0.0000       2.633134        71.6512 
 667   0.0000       2.642022        71.8931 
 668   0.0000       2.660450        72.3945 
 669   0.0000       2.666996        72.5727 
 670   0.0000       2.681829        72.9763 
 671   0.0000       2.686489        73.1031 
 672   0.0000       2.692030        73.2539 
 673   0.0000       2.704536        73.5942 
 674   0.0000       2.709992        73.7426 
 675   0.0000       2.720939        74.0405 
 676   0.0000       2.728826        74.2551 
 677   0.0000       2.741463        74.5990 
 678   0.0000       2.743176        74.6456 
 679   0.0000       2.751633        74.8757 
 680   0.0000       2.759640        75.0936 
 681   0.0000       2.768072        75.3231 
 682   0.0000       2.779433        75.6322 
 683   0.0000       2.793862        76.0249 
 684   0.0000       2.798849        76.1606 
 685   0.0000       2.813262        76.5528 
 686   0.0000       2.816570        76.6428 
 687   0.0000       2.825462        76.8847 
 688   0.0000       2.834768        77.1380 
 689   0.0000       2.844558        77.4044 
 690   0.0000       2.865400        77.9715 
 691   0.0000       2.868953        78.0682 
 692   0.0000       2.881768        78.4169 
 693   0.0000       2.890231        78.6472 
 694   0.0000       2.908784        79.1520 
 695   0.0000       2.920318        79.4659 
 696   0.0000       2.935866        79.8890 
 697   0.0000       2.948142        80.2230 
 698   0.0000       2.969250        80.7974 
 699   0.0000       2.976268        80.9884 
 700   0.0000       2.991138        81.3930 
 701   0.0000       3.002046        81.6898 
 702   0.0000       3.016102        82.0723 
 703   0.0000       3.035591        82.6026 
 704   0.0000       3.036816        82.6360 
 705   0.0000       3.063018        83.3490 
 706   0.0000       3.076308        83.7106 
 707   0.0000       3.095393        84.2299 
 708   0.0000       3.102095        84.4123 
 709   0.0000       3.116520        84.8048 
 710   0.0000       3.128895        85.1416 
 711   0.0000       3.141021        85.4715 
 712   0.0000       3.158526        85.9479 
 713   0.0000       3.162848        86.0655 
 714   0.0000       3.184644        86.6586 
 715   0.0000       3.191899        86.8560 
 716   0.0000       3.200697        87.0954 
 717   0.0000       3.213092        87.4327 
 718   0.0000       3.224035        87.7305 
 719   0.0000       3.237498        88.0968 
 720   0.0000       3.249599        88.4261 
 721   0.0000       3.262860        88.7869 
 722   0.0000       3.278368        89.2089 
 723   0.0000       3.285301        89.3976 
 724   0.0000       3.295769        89.6824 
 725   0.0000       3.308295        90.0233 
 726   0.0000       3.315294        90.2137 
 727   0.0000       3.319668        90.3327 
 728   0.0000       3.326026        90.5058 
 729   0.0000       3.335066        90.7518 
 730   0.0000       3.345491        91.0354 
 731   0.0000       3.349536        91.1455 
[...]
      f+2     :     0.031009
      f-2     :     0.057807
      f+3     :     0.085166
      f-3     :     0.036358
 17 C s       :     2.429776  s :     2.429776
      pz      :     0.758589  p :     2.203729
      px      :     0.705808
      py      :     0.739333
      dz2     :     0.131718  d :     0.639148
      dxz     :     0.075969
      dyz     :     0.152344
      dx2y2   :     0.131101
      dxy     :     0.148016
      f0      :     0.026525  f :     0.258632
      f+1     :     0.035489
      f-1     :     0.025663
      f+2     :     0.030262
      f-2     :     0.042079
      f+3     :     0.056128
      f-3     :     0.042485
 18 C s       :     2.429324  s :     2.429324
      pz      :     0.726264  p :     2.208984
      px      :     0.773710
      py      :     0.709010
      dz2     :     0.202327  d :     0.654236
      dxz     :     0.064099
      dyz     :     0.123907
      dx2y2   :     0.069465
      dxy     :     0.194439
      f0      :     0.029727  f :     0.263832
      f+1     :     0.018539
      f-1     :     0.070108
      f+2     :     0.032928
      f-2     :     0.046257
      f+3     :     0.027355
      f-3     :     0.038918
 19 H s       :     0.630525  s :     0.630525
      pz      :     0.100529  p :     0.316867
      px      :     0.109226
      py      :     0.107112
      dz2     :     0.038205  d :     0.236934
      dxz     :     0.045030
      dyz     :     0.045271
      dx2y2   :     0.060398
      dxy     :     0.048029
 20 H s       :     0.666312  s :     0.666312
      pz      :     0.099767  p :     0.297113
      px      :     0.116711
      py      :     0.080634
      dz2     :     0.054531  d :     0.212205
      dxz     :     0.048612
      dyz     :     0.027818
      dx2y2   :     0.034435
      dxy     :     0.046809
 21 H s       :     0.647563  s :     0.647563
      pz      :     0.128299  p :     0.323283
      px      :     0.092398
      py      :     0.102586
      dz2     :     0.065178  d :     0.244894
      dxz     :     0.062258
      dyz     :     0.054994
      dx2y2   :     0.023570
      dxy     :     0.038894
 22 H s       :     0.639419  s :     0.639419
      pz      :     0.101962  p :     0.347625
      px      :     0.115263
      py      :     0.130401
      dz2     :     0.030714  d :     0.263384
      dxz     :     0.047126
      dyz     :     0.059786
      dx2y2   :     0.076567
      dxy     :     0.049192
 23 H s       :     0.663904  s :     0.663904
      pz      :     0.099113  p :     0.295111
      px      :     0.117616
      py      :     0.078382
      dz2     :     0.052500  d :     0.212589
      dxz     :     0.049413
      dyz     :     0.027184
      dx2y2   :     0.036532
      dxy     :     0.046960
 24 H s       :     0.639790  s :     0.639790
      pz      :     0.126305  p :     0.317772
      px      :     0.085685
      py      :     0.105782
      dz2     :     0.062013  d :     0.232745
      dxz     :     0.060533
      dyz     :     0.055670
      dx2y2   :     0.020085
      dxy     :     0.034443
 25 H s       :     0.616116  s :     0.616116
      pz      :     0.126417  p :     0.319883
      px      :     0.079599
      py      :     0.113866
      dz2     :     0.077054  d :     0.241105
      dxz     :     0.028066
      dyz     :     0.045939
      dx2y2   :     0.031857
      dxy     :     0.058189
 26 H s       :     0.632257  s :     0.632257
      pz      :     0.080081  p :     0.295961
      px      :     0.112389
      py      :     0.103491
      dz2     :     0.016879  d :     0.224091
      dxz     :     0.050123
      dyz     :     0.039676
      dx2y2   :     0.062197
      dxy     :     0.055216
 27 H s       :     0.629161  s :     0.629161
      pz      :     0.133717  p :     0.293635
      px      :     0.073891
      py      :     0.086027
      dz2     :     0.064102  d :     0.217543
      dxz     :     0.053890
      dyz     :     0.063847
      dx2y2   :     0.007309
      dxy     :     0.028394
 28 H s       :     0.625344  s :     0.625344
      pz      :     0.084235  p :     0.302243
      px      :     0.124655
      py      :     0.093353
      dz2     :     0.037452  d :     0.227904
      dxz     :     0.036421
      dyz     :     0.039193
      dx2y2   :     0.066141
      dxy     :     0.048697
 29 H s       :     0.624925  s :     0.624925
      pz      :     0.129375  p :     0.305763
      px      :     0.091834
      py      :     0.084554
      dz2     :     0.057847  d :     0.224237
      dxz     :     0.059281
      dyz     :     0.067760
      dx2y2   :     0.007545
      dxy     :     0.031804
 30 H s       :     0.630426  s :     0.630426
      pz      :     0.078122  p :     0.300118
      px      :     0.131159
      py      :     0.090837
      dz2     :     0.020223  d :     0.226886
      dxz     :     0.050896
      dyz     :     0.035052
      dx2y2   :     0.068382
      dxy     :     0.052333


                      *****************************
                      * MAYER POPULATION ANALYSIS *
                      *****************************

  NA   - Mulliken gross atomic population
  ZA   - Total nuclear charge
  QA   - Mulliken gross atomic charge
  VA   - Mayer's total valence
  BVA  - Mayer's bonded valence
  FA   - Mayer's free valence

  ATOM       NA         ZA         QA         VA         BVA        FA
  0 C      4.0631     6.0000     1.9369    -1.2644    -1.2644    -0.0000
  1 C      7.1378     6.0000    -1.1378     3.0256     3.0256    -0.0000
  2 C      6.9331     6.0000    -0.9331     2.7552     2.7552    -0.0000
  3 C      7.0963     6.0000    -1.0963     3.0846     3.0846     0.0000
  4 C      5.3968     6.0000     0.6032     2.4625     2.4625    -0.0000
  5 C      4.7398     6.0000     1.2602    -1.0375    -1.0375     0.0000
  6 S     13.7593    16.0000     2.2407     3.9721     3.9721    -0.0000
  7 O      8.9998     8.0000    -0.9998     1.3526     1.3526    -0.0000
  8 O      9.0215     8.0000    -1.0215     1.2081     1.2081    -0.0000
  9 N      7.6518     7.0000    -0.6518     2.8718     2.8718     0.0000
 10 H      0.8123     1.0000     0.1877     1.0056     1.0056     0.0000
 11 H      0.8790     1.0000     0.1210     1.0996     1.0996    -0.0000
 12 C      7.2051     6.0000    -1.2051     3.4899     3.4899     0.0000
 13 C      6.9496     6.0000    -0.9496     2.8253     2.8253     0.0000
 14 C      6.7146     6.0000    -0.7146     1.8349     1.8349     0.0000
 15 C      5.1256     6.0000     0.8744     0.8923     0.8923    -0.0000
 16 N      7.1562     7.0000    -0.1562     2.1477     2.1477     0.0000
 17 C      7.1123     6.0000    -1.1123     3.6946     3.6946    -0.0000
 18 C      7.2589     6.0000    -1.2589     3.8108     3.8108    -0.0000
 19 H      0.9190     1.0000     0.0810     1.2495     1.2495    -0.0000
 20 H      0.4462     1.0000     0.5538     0.5890     0.5890    -0.0000
 21 H      0.6288     1.0000     0.3712     0.9503     0.9503    -0.0000
 22 H      0.9424     1.0000     0.0576     1.4656     1.4656     0.0000
 23 H      0.4350     1.0000     0.5650     0.5143     0.5143    -0.0000
 24 H      0.6990     1.0000     0.3010     0.8892     0.8892     0.0000
 25 H      0.5722     1.0000     0.4278     0.8811     0.8811    -0.0000
 26 H      0.6508     1.0000     0.3492     0.9606     0.9606     0.0000
 27 H      0.7198     1.0000     0.2802     1.0373     1.0373     0.0000
 28 H      0.6261     1.0000     0.3739     0.9100     0.9100    -0.0000
 29 H      0.6713     1.0000     0.3287     0.9585     0.9585     0.0000
 30 H      0.6765     1.0000     0.3235     0.9570     0.9570    -0.0000

  Mayer bond orders larger than 0.100000
B(  0-C ,  1-C ) :  -0.1176 B(  0-C ,  2-C ) :   0.1596 B(  0-C ,  3-C ) :  -0.4402 
B(  0-C ,  4-C ) :   0.4514 B(  0-C ,  5-C ) :  -0.6148 B(  0-C , 12-C ) :  -0.8617 
B(  0-C , 14-C ) :   0.3798 B(  0-C , 15-C ) :  -0.1118 B(  0-C , 18-C ) :   0.1000 
B(  0-C , 19-H ) :  -0.2217 B(  0-C , 22-H ) :  -0.2706 B(  0-C , 24-H ) :   0.5299 
B(  1-C ,  2-C ) :   1.2625 B(  1-C ,  3-C ) :   0.2266 B(  1-C ,  4-C ) :  -0.1583 
B(  1-C ,  5-C ) :  -0.5398 B(  1-C , 14-C ) :   0.1183 B(  1-C , 15-C ) :   0.6470 
B(  1-C , 19-H ) :   1.5344 B(  1-C , 21-H ) :   0.1044 B(  2-C ,  3-C ) :   1.1641 
B(  2-C ,  4-C ) :   0.3044 B(  2-C ,  5-C ) :  -0.3467 B(  2-C ,  8-O ) :  -0.1403 
B(  2-C , 19-H ) :  -0.1555 B(  2-C , 20-H ) :   0.6071 B(  2-C , 21-H ) :  -0.1633 
B(  3-C ,  4-C ) :   0.4502 B(  3-C ,  5-C ) :   0.5409 B(  3-C ,  7-O ) :  -0.1127 
B(  3-C , 12-C ) :   0.1077 B(  3-C , 15-C ) :   0.1793 B(  3-C , 21-H ) :   0.9264 
B(  4-C ,  5-C ) :  -0.4192 B(  4-C ,  6-S ) :   0.7745 B(  4-C ,  7-O ) :   0.2742 
B(  4-C ,  8-O ) :   0.2653 B(  4-C ,  9-N ) :   0.1491 B(  4-C , 12-C ) :   0.9254 
B(  4-C , 14-C ) :   0.2125 B(  4-C , 15-C ) :  -0.2298 B(  4-C , 19-H ) :  -0.2036 
B(  4-C , 21-H ) :  -0.2136 B(  4-C , 22-H ) :  -0.1514 B(  5-C ,  6-S ) :   0.1943 
B(  5-C , 12-C ) :  -0.2400 B(  5-C , 13-C ) :   0.3386 B(  5-C , 14-C ) :  -0.6113 
B(  5-C , 15-C ) :   0.2822 B(  5-C , 16-N ) :   0.2190 B(  5-C , 19-H ) :   0.2959 
B(  5-C , 20-H ) :  -0.1332 B(  5-C , 21-H ) :   0.2587 B(  6-S ,  7-O ) :   1.2020 
B(  6-S ,  8-O ) :   0.9877 B(  6-S ,  9-N ) :   0.8851 B(  6-S , 12-C ) :  -0.1145 
B(  6-S , 22-H ) :  -0.1293 B(  9-N , 10-H ) :   0.9097 B(  9-N , 11-H ) :   0.9783 
B( 12-C , 13-C ) :   1.4857 B( 12-C , 14-C ) :   0.1212 B( 12-C , 22-H ) :   1.9214 
B( 12-C , 24-H ) :   0.1554 B( 13-C , 14-C ) :   0.8864 B( 13-C , 23-H ) :   0.4600 
B( 13-C , 24-H ) :  -0.2233 B( 14-C , 15-C ) :   0.6191 B( 14-C , 16-N ) :  -0.7167 
B( 14-C , 18-C ) :  -0.2115 B( 14-C , 24-H ) :   1.0552 B( 15-C , 16-N ) :   0.3806 
B( 15-C , 17-C ) :  -0.1812 B( 15-C , 18-C ) :  -0.1326 B( 15-C , 23-H ) :   0.1766 
B( 15-C , 24-H ) :  -0.5420 B( 16-N , 17-C ) :   1.0508 B( 16-N , 18-C ) :   1.2100 
B( 17-C , 25-H ) :   0.8195 B( 17-C , 26-H ) :   0.8960 B( 17-C , 27-H ) :   0.9604 
B( 18-C , 28-H ) :   0.9227 B( 18-C , 29-H ) :   0.9304 B( 18-C , 30-H ) :   0.9213 


-------
TIMINGS
-------

Total SCF time: 0 days 0 hours 7 min 22 sec 

Total time                  ....     442.700 sec
Sum of individual times     ....     438.894 sec  ( 99.1%)

Fock matrix formation       ....     426.900 sec  ( 96.4%)
  Split-RI-J                ....      25.136 sec  (  5.9% of F)
  Chain of spheres X        ....     351.189 sec  ( 82.3% of F)
  XC integration            ....      48.276 sec  ( 11.3% of F)
    Basis function eval.    ....       5.456 sec  ( 11.3% of XC)
    Density eval.           ....      15.972 sec  ( 33.1% of XC)
    XC-Functional eval.     ....       0.357 sec  (  0.7% of XC)
    XC-Potential eval.      ....      16.089 sec  ( 33.3% of XC)
Diagonalization             ....       1.765 sec  (  0.4%)
Density matrix formation    ....       0.211 sec  (  0.0%)
Population analysis         ....       0.290 sec  (  0.1%)
Initial guess               ....       2.386 sec  (  0.5%)
Orbital Transformation      ....       0.000 sec  (  0.0%)
Orbital Orthonormalization  ....       0.000 sec  (  0.0%)
DIIS solution               ....       1.257 sec  (  0.3%)
SOSCF solution              ....       1.813 sec  (  0.4%)
Grid generation             ....       4.271 sec  (  1.0%)

Maximum memory used throughout the entire SCF-calculation: 294.8 MB


           ************************************************************
           *        Program running with 8 parallel MPI-processes     *
           *              working on a common directory               *
           ************************************************************

------------------------------------------------------------------------------
                                ORCA  MP2 
------------------------------------------------------------------------------

Freezing NCore=42 chemical core electrons

   <<< Use J-auxbasis for calculation of Separable RI-J derivative contributions (Dim=989) >>> 


-------------
RI-MP2 ENERGY
-------------
Dimension of the basis                    ... 1108
Memory devoted to MP2                     ... 3000 MB   
Data format for buffers                   ... DOUBLE
Compression type for matrix containers    ... UNCOMPRESSED
Scaling for aa/bb pairs                   ...   2.500e-01
Scaling for ab pairs                      ...   5.300e-01
Overall scaling of the MP2 energy         ...   1.000e+00
Calculating two index integrals           ... done (    0.068 sec)
Cholesky decomposition of V**-1           ... done (    0.618 sec)

-----------------
RI-TRANSFORMATION (AUX index driven)
-----------------

Dimension of the orbital-basis         ... 1108
Dimension of the aux-basis             ... 2487
Transformation of internal/external MOs...   21-  65 to   66-1107
Number Format for Storage              ... Double (8 Byte)
Integral mode                          ... Direct

First Phase: integral generation and transformation of MO indices
  Aux angular momentum 0               ... done (    0.958 sec)
  Aux angular momentum 1               ... done (    1.737 sec)
  Aux angular momentum 2               ... done (    2.433 sec)
  Aux angular momentum 3               ... done (    2.296 sec)
  Aux angular momentum 4               ... done (    1.159 sec)
Closing buffer VIA ( 0.87 GB; CompressionRatio= 1.00)
  Phase 1 completed in     9.629 sec
Second Phase: sorting and transformation of aux index

IA-Transformation
Memory available                       ... 2880 MB 
Max. # MO pairs treated in a batch     ... 6    
# of internal orbitals                 ... 45
# batches for internal orbitals        ... 1
Closing buffer IAV ( 0.87 GB; CompressionRatio= 1.00)
(ia|v) transformation done in     1.637 sec

  Phase 2 completed in     1.878 sec
RI-Integral transformation completed in    11.510 sec
Opening buffers                              ... done

Starting loop over batches of integrals:

Operator 0  - window                       ... ( 21- 65)x( 66-1107)
Operator 0  - Memory available             ...  3000 MB
Operator 0  - Memory needed per MO         ...  19.8 MB
Operator 0  - Number of orbitals per batch ... 6
Operator 0  - Number of batches            ... 1

OPERATOR  0   PASS   0:  MOs    21 ...   26 +   27 ...   32 +   33 ...   38 +   39 ...   44
                            +   45 ...   50 +   51 ...   56 +   57 ...   62 +   63 ...   65
  Reading integrals       ... ok
  Internal MO  23
  Internal MO  26
Time spent in pair loops =     2.032 sec
Deleting buffer (Ka|jb)[aa] ...done

-----------------------------------------------
 RI-MP2 CORRELATION ENERGY:     -1.580357503 Eh
-----------------------------------------------


-------
TIMINGS
-------

Total time                :   34.467 sec
Integral trafo            :   11.525 sec ( 33.4%)
I/O of integrals          :    0.051 sec (  0.1%)
K(i,j) Operators          :    1.653 sec (  4.8%)
T(i,j) pair energies      :    0.180 sec (  0.5%)
V-calculation             :    0.068 sec (  0.2%)
V**(-1/2)                 :    0.618 sec (  1.8%)
Gamma(ia|P)               :    0.000 sec (  0.0%)
Gamma-Trafo               :    0.000 sec (  0.0%)
D(virtual)                :    0.000 sec (  0.0%)
D(internal)               :    0.000 sec (  0.0%)
W(virtual)                :    0.000 sec (  0.0%)
W(internal)               :    0.000 sec (  0.0%)
L(virtual)                :    0.000 sec (  0.0%)
L(internal)               :    0.000 sec (  0.0%)
G(D)                      :    0.000 sec (  0.0%)
G(Z)                      :    0.000 sec (  0.0%)
Z-Vector Solution         :    0.000 sec (  0.0%)
3-Index Derivative        :    0.000 sec (  0.0%)
2-Index Derivative        :    0.000 sec (  0.0%)
Separable Gradient (RIJ)  :    0.000 sec (  0.0%)
Separable Gradient (COSX) :    0.000 sec (  0.0%)


---------------------------------------
MP2 TOTAL ENERGY:    -1122.508811300 Eh
---------------------------------------

Maximum memory used throughout the entire MP2-calculation: 322.2 MB


-------------------------------------------------------------------------------
                          DFT DISPERSION CORRECTION                            
                                                                               
                              DFTD3 V3.1  Rev 1                                
                          USING Becke-Johnson damping                          
-------------------------------------------------------------------------------
The DSD-PBEP86 functional is recognized
Active option DFTDOPT                   ...         4   

molecular C6(AA) [au] = 11896.334151 


            DFT-D V3
 parameters
 s6 scaling factor         :     0.4180 
 a1 scaling factor         :     0.0000 
 s8 scaling factor         :     0.0000 
 a2 scaling factor         :     5.6500 
 ad hoc parameters k1-k3   :    16.0000     1.3333    -4.0000 

 Edisp/kcal,au: -15.502760755106  -0.024705219191 
 E6   /kcal   : -15.502760755 
 E8   /kcal   :  -0.000000000 
 % E8         :   0.000000000 

-------------------------   ----------------
Dispersion correction           -0.024705219
-------------------------   ----------------


-------------------------   --------------------
FINAL SINGLE POINT ENERGY     -1122.533516519146
-------------------------   --------------------


                            ***************************************
                            *     ORCA property calculations      *
                            ***************************************


  WARNING: The energy has been calculated at the MP2 level but the densities
           used in the property calculations are still SCF densities
           MP2 response densities have not been calculated 
           use %mp2 Density relaxed end
           or  %mp2 Density unrelaxed end

                                    ---------------------
                                    Active property flags
                                    ---------------------
   (+) Dipole Moment


------------------------------------------------------------------------------
                       ORCA ELECTRIC PROPERTIES CALCULATION
------------------------------------------------------------------------------

Dipole Moment Calculation                       ... on
Quadrupole Moment Calculation                   ... off
Polarizability Calculation                      ... off
GBWName                                         ... HA.40.avtz.gbw
Electron density                                ... HA.40.avtz.scfp
The origin for moment calculation is the CENTER OF MASS  = (-1.354714,  0.868723 -3.247746)

-------------
DIPOLE MOMENT
-------------
                                X             Y             Z
Electronic contribution:      9.78144     -12.71390     -13.31287
Nuclear contribution   :    -10.75392      15.17681      14.39978
                        -----------------------------------------
Total Dipole Moment    :     -0.97248       2.46291       1.08692
                        -----------------------------------------
Magnitude (a.u.)       :      2.86235
Magnitude (Debye)      :      7.27551



--------------------
Rotational spectrum 
--------------------
 
Rotational constants in cm-1:     0.032411     0.008908     0.007526 
Rotational constants in MHz :   971.666563   267.054631   225.626587 

 Dipole components along the rotational axes: 
x,y,z [a.u.] :    -2.604371     0.090468     1.184107 
x,y,z [Debye]:    -6.619784     0.229952     3.009762 

 

Timings for individual modules:

Sum of individual times         ...      484.067 sec (=   8.068 min)
GTO integral calculation        ...        3.936 sec (=   0.066 min)   0.8 %
SCF iterations                  ...      444.134 sec (=   7.402 min)  91.8 %
MP2 module                      ...       35.996 sec (=   0.600 min)   7.4 %
                             ****ORCA TERMINATED NORMALLY****
TOTAL RUN TIME: 0 days 0 hours 8 minutes 6 seconds 852 msec
