
                                 *****************
                                 * O   R   C   A *
                                 *****************

                                            #,                                       
                                            ###                                      
                                            ####                                     
                                            #####                                    
                                            ######                                   
                                           ########,                                 
                                     ,,################,,,,,                         
                               ,,#################################,,                 
                          ,,##########################################,,             
                       ,#########################################, ''#####,          
                    ,#############################################,,   '####,        
                  ,##################################################,,,,####,       
                ,###########''''           ''''###############################       
              ,#####''   ,,,,##########,,,,          '''####'''          '####       
            ,##' ,,,,###########################,,,                        '##       
           ' ,,###''''                  '''############,,,                           
         ,,##''                                '''############,,,,        ,,,,,,###''
      ,#''                                            '''#######################'''  
     '                                                          ''''####''''         
             ,#######,   #######,   ,#######,      ##                                
            ,#'     '#,  ##    ##  ,#'     '#,    #''#        ######   ,####,        
            ##       ##  ##   ,#'  ##            #'  '#       #        #'  '#        
            ##       ##  #######   ##           ,######,      #####,   #    #        
            '#,     ,#'  ##    ##  '#,     ,#' ,#      #,         ##   #,  ,#        
             '#######'   ##     ##  '#######'  #'      '#     #####' # '####'        



                  #######################################################
                  #                        -***-                        #
                  #          Department of theory and spectroscopy      #
                  #    Directorship and core code : Frank Neese         #
                  #        Max Planck Institute fuer Kohlenforschung    #
                  #                Kaiser Wilhelm Platz 1               #
                  #                 D-45470 Muelheim/Ruhr               #
                  #                      Germany                        #
                  #                                                     #
                  #                  All rights reserved                #
                  #                        -***-                        #
                  #######################################################


                         Program Version 5.0.3 -  RELEASE  -


 With contributions from (in alphabetic order):
   Daniel Aravena         : Magnetic Suceptibility
   Michael Atanasov       : Ab Initio Ligand Field Theory (pilot matlab implementation)
   Alexander A. Auer      : GIAO ZORA, VPT2 properties, NMR spectrum
   Ute Becker             : Parallelization
   Giovanni Bistoni       : ED, misc. LED, open-shell LED, HFLD
   Martin Brehm           : Molecular dynamics
   Dmytro Bykov           : SCF Hessian
   Vijay G. Chilkuri      : MRCI spin determinant printing, contributions to CSF-ICE
   Dipayan Datta          : RHF DLPNO-CCSD density
   Achintya Kumar Dutta   : EOM-CC, STEOM-CC
   Dmitry Ganyushin       : Spin-Orbit,Spin-Spin,Magnetic field MRCI
   Miquel Garcia          : C-PCM and meta-GGA Hessian, CC/C-PCM, Gaussian charge scheme
   Yang Guo               : DLPNO-NEVPT2, F12-NEVPT2, CIM, IAO-localization
   Andreas Hansen         : Spin unrestricted coupled pair/coupled cluster methods
   Benjamin Helmich-Paris : MC-RPA, TRAH-SCF, COSX integrals
   Lee Huntington         : MR-EOM, pCC
   Robert Izsak           : Overlap fitted RIJCOSX, COSX-SCS-MP3, EOM
   Marcus Kettner         : VPT2
   Christian Kollmar      : KDIIS, OOCD, Brueckner-CCSD(T), CCSD density, CASPT2, CASPT2-K
   Simone Kossmann        : Meta GGA functionals, TD-DFT gradient, OOMP2, MP2 Hessian
   Martin Krupicka        : Initial AUTO-CI
   Lucas Lang             : DCDCAS
   Marvin Lechner         : AUTO-CI (C++ implementation), FIC-MRCC
   Dagmar Lenk            : GEPOL surface, SMD
   Dimitrios Liakos       : Extrapolation schemes; Compound Job, initial MDCI parallelization
   Dimitrios Manganas     : Further ROCIS development; embedding schemes
   Dimitrios Pantazis     : SARC Basis sets
   Anastasios Papadopoulos: AUTO-CI, single reference methods and gradients
   Taras Petrenko         : DFT Hessian,TD-DFT gradient, ASA, ECA, R-Raman, ABS, FL, XAS/XES, NRVS
   Peter Pinski           : DLPNO-MP2, DLPNO-MP2 Gradient
   Christoph Reimann      : Effective Core Potentials
   Marius Retegan         : Local ZFS, SOC
   Christoph Riplinger    : Optimizer, TS searches, QM/MM, DLPNO-CCSD(T), (RO)-DLPNO pert. Triples
   Tobias Risthaus        : Range-separated hybrids, TD-DFT gradient, RPA, STAB
   Michael Roemelt        : Original ROCIS implementation
   Masaaki Saitow         : Open-shell DLPNO-CCSD energy and density
   Barbara Sandhoefer     : DKH picture change effects
   Avijit Sen             : IP-ROCIS
   Kantharuban Sivalingam : CASSCF convergence, NEVPT2, FIC-MRCI
   Bernardo de Souza      : ESD, SOC TD-DFT
   Georgi Stoychev        : AutoAux, RI-MP2 NMR, DLPNO-MP2 response
   Willem Van den Heuvel  : Paramagnetic NMR
   Boris Wezisla          : Elementary symmetry handling
   Frank Wennmohs         : Technical directorship


 We gratefully acknowledge several colleagues who have allowed us to
 interface, adapt or use parts of their codes:
   Stefan Grimme, W. Hujo, H. Kruse, P. Pracht,  : VdW corrections, initial TS optimization,
                  C. Bannwarth, S. Ehlert          DFT functionals, gCP, sTDA/sTD-DF
   Ed Valeev, F. Pavosevic, A. Kumar             : LibInt (2-el integral package), F12 methods
   Garnet Chan, S. Sharma, J. Yang, R. Olivares  : DMRG
   Ulf Ekstrom                                   : XCFun DFT Library
   Mihaly Kallay                                 : mrcc  (arbitrary order and MRCC methods)
   Jiri Pittner, Ondrej Demel                    : Mk-CCSD
   Frank Weinhold                                : gennbo (NPA and NBO analysis)
   Christopher J. Cramer and Donald G. Truhlar   : smd solvation model
   Lars Goerigk                                  : TD-DFT with DH, B97 family of functionals
   V. Asgeirsson, H. Jonsson                     : NEB implementation
   FAccTs GmbH                                   : IRC, NEB, NEB-TS, DLPNO-Multilevel, CI-OPT
                                                   MM, QMMM, 2- and 3-layer-ONIOM, Crystal-QMMM,
                                                   LR-CPCM, SF, NACMEs, symmetry and pop. for TD-DFT,
                                                   nearIR, NL-DFT gradient (VV10), updates on ESD,
                                                   ML-optimized integration grids
   S Lehtola, MJT Oliveira, MAL Marques          : LibXC Library
   Liviu Ungur et al                             : ANISO software


 Your calculation uses the libint2 library for the computation of 2-el integrals
 For citations please refer to: http://libint.valeyev.net

 Your ORCA version has been built with support for libXC version: 5.1.0
 For citations please refer to: https://tddft.org/programs/libxc/

 This ORCA versions uses:
   CBLAS   interface :  Fast vector & matrix operations
   LAPACKE interface :  Fast linear algebra routines
   SCALAPACK package :  Parallel linear algebra routines
   Shared memory     :  Shared parallel matrices
   BLAS/LAPACK       :  OpenBLAS 0.3.15  USE64BITINT DYNAMIC_ARCH NO_AFFINITY SkylakeX SINGLE_THREADED
        Core in use  :  SkylakeX
   Copyright (c) 2011-2014, The OpenBLAS Project


Your calculation utilizes the atom-pairwise dispersion correction
with the Becke-Johnson damping scheme (D3BJ)
Cite in your paper:
S.Grimme, S.Ehrlich, L.Goerigk, J Comput Chem, (2011), 32, 1456–1465 
S.Grimme, J.Antony, S.Ehrlich and H.Krieg, J.Chem.Phys., 132, (2010), 154104 
   

================================================================================

----- Orbital basis set information -----
Your calculation utilizes the basis: aug-cc-pVTZ 
    H, B-Ne : Obtained from the ccRepo (grant-hill.group.shef.ac.uk/ccrepo) Feb. 2017
              R. A. Kendall, T. H. Dunning, Jr., R. J. Harrison, J. Chem. Phys. 96, 6796 (1992)
         He : Obtained from the ccRepo (grant-hill.group.shef.ac.uk/ccrepo) Feb. 2017
              D. E. Woon, T. H. Dunning, Jr., J. Chem. Phys. 100, 2975 (1994)
  Li-Be, Na : Obtained from the ccRepo (grant-hill.group.shef.ac.uk/ccrepo) Feb. 2017
              B. P. Prascher, D. E. Woon, K. A. Peterson, T. H. Dunning, Jr., A. K. Wilson, Theor. Chem. Acc. 128, 69 (2011)
         Mg : Obtained from the Peterson Research Group Website (tyr0.chem.wsu.edu/~kipeters) Feb. 2017
              B. P. Prascher, D. E. Woon, K. A. Peterson, T. H. Dunning, Jr., A. K. Wilson, Theor. Chem. Acc. 128, 69 (2011)
      Al-Ar : Obtained from the ccRepo (grant-hill.group.shef.ac.uk/ccrepo) Feb. 2017
              D. E. Woon, T. H. Dunning, Jr., J. Chem. Phys. 98, 1358 (1993)
      Sc-Zn : Obtained from the ccRepo (grant-hill.group.shef.ac.uk/ccrepo) Feb. 2017
              N. B. Balabanov, K. A. Peterson, J. Chem. Phys. 123, 064107 (2005)
              N. B. Balabanov, K. A. Peterson, J. Chem. Phys. 125, 074110 (2006)
      Ga-Kr : Obtained from the ccRepo (grant-hill.group.shef.ac.uk/ccrepo) Feb. 2017
              A. K. Wilson, D. E. Woon, K. A. Peterson, T. H. Dunning, Jr., J. Chem. Phys. 110, 7667 (1999)
     Ag, Au : Obtained from the Peterson Research Group Website (tyr0.chem.wsu.edu/~kipeters) Feb. 2017
              K. A. Peterson, C. Puzzarini, Theor. Chem. Acc. 114, 283 (2005)

----- AuxJ basis set information -----
Your calculation utilizes the auxiliary basis: def2/J
   F. Weigend, Phys. Chem. Chem. Phys. 8, 1057 (2006).

----- AuxC basis set information -----
Your calculation utilizes the auxiliary basis: aug-cc-pVTZ/C 
  H-He, B-F, Al-Ar, Ga-Kr : Obtained from the EMSL Basis Set Exchange (bse.pnl.gov) Feb. 2017
                            F. Weigend, A. Kohn, C. Hattig, J. Chem. Phys. 116, 3175 (2002)
                   Be, Mg : Obtained from the TURBOMOLE 7.0 basis set library
                            C. Haettig, Phys. Chem. Chem. Phys. 7, 59 (2005)
                       Ne : Obtained from the EMSL Basis Set Exchange (bse.pnl.gov) Feb. 2017
                            C. Haettig, Phys. Chem. Chem. Phys. 7, 59 (2005)
                            F. Weigend, A. Kohn, C. Hattig, J. Chem. Phys. 116, 3175 (2002)
                    Sc-Zn : Obtained from the EMSL Basis Set Exchange (bse.pnl.gov) Feb. 2017
                            J. G. Hill, J. A. Platts, J. Chem. Phys. 128, 044104 (2008)

================================================================================
                                        WARNINGS
                       Please study these warnings very carefully!
================================================================================


WARNING: No MP2 level density has been requested!
         To caclulate MP2 level properties use
         %mp2 Density relaxed end
         or
         %mp2 Density unrelaxed end
         Otherwise for double-hybrid DFT only the energy is correct!

WARNING: There are different parametrizations of Gershom Martin's DSD-DFs
         for use with and without D3(BJ)!
         You are using the D3(BJ) parametrized version,
         consistent with the GMTKN55 benchmark (L. Goerigk et al., PCCP 2017, 19, 32184)

WARNING: The frozen-core approximation is turned on by default for 
         the MP2 part of double-hybrid DFT.

INFO   : the flag for use of the SHARK integral package has been found!

================================================================================
                                       INPUT FILE
================================================================================
NAME = HA.9.avtz.com
|  1> !PAL8
|  2> !RI-DSD-PBEP86 D3BJ aug-cc-pVTZ aug-cc-pVTZ/C TightSCF
|  3> %maxcore 3000
|  4> 
|  5> 
|  6> * xyz 0 1
|  7> C -1.3033858151  0.7775946367 -0.9097555986
|  8> C -2.4851743869  0.941402937 -1.6381501548
|  9> H -3.4378839937  0.9869473916 -1.1184217923
| 10> C -2.4214407972  1.0744117413 -3.0140118022
| 11> H -3.3162781281  1.2126174676 -3.6118969538
| 12> C -1.1790660006  1.0501676218 -3.6665845451
| 13> O -1.2232372824  1.190107164 -5.0109262848
| 14> C  0.000808352  0.8981983952 -2.9307304028
| 15> H  0.969265988  0.8955692642 -3.4165183152
| 16> C -0.0683903527  0.7617286188 -1.5447291313
| 17> H  0.8387537935  0.6662737263 -0.9550204289
| 18> S -1.3845957259  0.5618033223  0.8538892738
| 19> O -0.0781860394  0.8960900885  1.3938692513
| 20> O -2.6155426789  1.1810947983  1.3128060248
| 21> N -1.5787872188 -1.0696908392  1.1472462522
| 22> H -0.7828790136 -1.6186292304  0.8323007429
| 23> H -2.4611522367 -1.4262532423  0.7889487331
| 24> C  0.000011096  1.1920193211 -5.7223295761
| 25> H -0.2655636454  1.3171337808 -6.7712468292
| 26> H  0.5335617192  0.2437435215 -5.5892938406
| 27> H  0.6384583663  2.0238645148 -5.403421622
| 28> *
| 29> 
| 30>                          ****END OF INPUT****
================================================================================

                       ****************************
                       * Single Point Calculation *
                       ****************************

---------------------------------
CARTESIAN COORDINATES (ANGSTROEM)
---------------------------------
  C     -1.303386    0.777595   -0.909756
  C     -2.485174    0.941403   -1.638150
  H     -3.437884    0.986947   -1.118422
  C     -2.421441    1.074412   -3.014012
  H     -3.316278    1.212617   -3.611897
  C     -1.179066    1.050168   -3.666585
  O     -1.223237    1.190107   -5.010926
  C      0.000808    0.898198   -2.930730
  H      0.969266    0.895569   -3.416518
  C     -0.068390    0.761729   -1.544729
  H      0.838754    0.666274   -0.955020
  S     -1.384596    0.561803    0.853889
  O     -0.078186    0.896090    1.393869
  O     -2.615543    1.181095    1.312806
  N     -1.578787   -1.069691    1.147246
  H     -0.782879   -1.618629    0.832301
  H     -2.461152   -1.426253    0.788949
  C      0.000011    1.192019   -5.722330
  H     -0.265564    1.317134   -6.771247
  H      0.533562    0.243744   -5.589294
  H      0.638458    2.023865   -5.403422

----------------------------
CARTESIAN COORDINATES (A.U.)
----------------------------
  NO LB      ZA    FRAG     MASS         X           Y           Z
   0 C     6.0000    0    12.011   -2.463042    1.469441   -1.719189
   1 C     6.0000    0    12.011   -4.696299    1.778994   -3.095655
   2 H     1.0000    0     1.008   -6.496659    1.865060   -2.113511
   3 C     6.0000    0    12.011   -4.575860    2.030344   -5.695657
   4 H     1.0000    0     1.008   -6.266857    2.291515   -6.825496
   5 C     6.0000    0    12.011   -2.228112    1.984529   -6.928841
   6 O     8.0000    0    15.999   -2.311583    2.248977   -9.469278
   7 C     6.0000    0    12.011    0.001528    1.697349   -5.538278
   8 H     1.0000    0     1.008    1.831647    1.692381   -6.456284
   9 C     6.0000    0    12.011   -0.129239    1.439458   -2.919115
  10 H     1.0000    0     1.008    1.585015    1.259075   -1.804727
  11 S    16.0000    0    32.060   -2.616507    1.061654    1.613617
  12 O     8.0000    0    15.999   -0.147750    1.693365    2.634031
  13 O     8.0000    0    15.999   -4.942659    2.231946    2.480844
  14 N     7.0000    0    14.007   -2.983475   -2.021423    2.167981
  15 H     1.0000    0     1.008   -1.479427   -3.058766    1.572820
  16 H     1.0000    0     1.008   -4.650904   -2.695228    1.490897
  17 C     6.0000    0    12.011    0.000021    2.252590  -10.813636
  18 H     1.0000    0     1.008   -0.501843    2.489022  -12.795802
  19 H     1.0000    0     1.008    1.008286    0.460609  -10.562235
  20 H     1.0000    0     1.008    1.206511    3.824550  -10.210987

--------------------------------
INTERNAL COORDINATES (ANGSTROEM)
--------------------------------
 C      0   0   0     0.000000000000     0.00000000     0.00000000
 C      1   0   0     1.397861229588     0.00000000     0.00000000
 H      2   1   0     1.086207836015   119.80892816     0.00000000
 C      2   1   3     1.383744407491   119.36912713   178.52585492
 H      4   2   1     1.085035172729   121.47643218   180.58516490
 C      4   2   1     1.403543407713   120.09315958   359.72841653
 O      6   4   2     1.352327212884   115.56286616   180.10762625
 C      6   4   2     1.398813587472   120.25928876   359.68799500
 H      8   6   4     1.083469889240   121.22127833   181.13305398
 C      1   2   3     1.388760926114   120.99140528   182.20838193
 H     10   1   2     1.086176087093   119.70064902   177.97122383
 S      1   2   3     1.778652348528   119.49172837     3.13606051
 O     12   1   2     1.452595018282   107.43447064   200.15636862
 O     12   1   2     1.452362529706   107.47432435   334.54896417
 N     12   1   2     1.668994263531   107.34922600    87.30761289
 H     15  12   1     1.016854907185   112.46996901    63.66245533
 H     15  12   1     1.016898168113   112.44443036   295.59085620
 C      7   6   4     1.415074165716   118.14262347   179.14437467
 H     18   7   6     1.089224942400   105.87355915   180.13866185
 H     18   7   6     1.096175974260   111.01265745    61.30785836
 H     18   7   6     1.096030851036   110.99532732   298.96972804

---------------------------
INTERNAL COORDINATES (A.U.)
---------------------------
 C      0   0   0     0.000000000000     0.00000000     0.00000000
 C      1   0   0     2.641574897148     0.00000000     0.00000000
 H      2   1   0     2.052635334588   119.80892816     0.00000000
 C      2   1   3     2.614897969504   119.36912713   178.52585492
 H      4   2   1     2.050419322129   121.47643218   180.58516490
 C      4   2   1     2.652312657647   120.09315958   359.72841653
 O      6   4   2     2.555528075800   115.56286616   180.10762625
 C      6   4   2     2.643374592730   120.25928876   359.68799500
 H      8   6   4     2.047461365014   121.22127833   181.13305398
 C      1   2   3     2.624377815847   120.99140528   182.20838193
 H     10   1   2     2.052575337821   119.70064902   177.97122383
 S      1   2   3     3.361165826174   119.49172837     3.13606051
 O     12   1   2     2.745006768052   107.43447064   200.15636862
 O     12   1   2     2.744567428314   107.47432435   334.54896417
 N     12   1   2     3.153942077159   107.34922600    87.30761289
 H     15  12   1     1.921577292514   112.46996901    63.66245533
 H     15  12   1     1.921659043820   112.44443036   295.59085620
 C      7   6   4     2.674102632389   118.14262347   179.14437467
 H     18   7   6     2.058336839372   105.87355915   180.13866185
 H     18   7   6     2.071472385935   111.01265745    61.30785836
 H     18   7   6     2.071198142787   110.99532732   298.96972804

---------------------
BASIS SET INFORMATION
---------------------
There are 5 groups of distinct atoms

 Group   1 Type C   : 19s6p3d2f contracted to 5s4p3d2f pattern {88111/3111/111/11}
 Group   2 Type H   : 6s3p2d contracted to 4s3p2d pattern {3111/111/11}
 Group   3 Type O   : 19s6p3d2f contracted to 5s4p3d2f pattern {88111/3111/111/11}
 Group   4 Type S   : 42s17p3d2f contracted to 6s5p3d2f pattern {131313111/77111/111/11}
 Group   5 Type N   : 19s6p3d2f contracted to 5s4p3d2f pattern {88111/3111/111/11}

Atom   0C    basis set group =>   1
Atom   1C    basis set group =>   1
Atom   2H    basis set group =>   2
Atom   3C    basis set group =>   1
Atom   4H    basis set group =>   2
Atom   5C    basis set group =>   1
Atom   6O    basis set group =>   3
Atom   7C    basis set group =>   1
Atom   8H    basis set group =>   2
Atom   9C    basis set group =>   1
Atom  10H    basis set group =>   2
Atom  11S    basis set group =>   4
Atom  12O    basis set group =>   3
Atom  13O    basis set group =>   3
Atom  14N    basis set group =>   5
Atom  15H    basis set group =>   2
Atom  16H    basis set group =>   2
Atom  17C    basis set group =>   1
Atom  18H    basis set group =>   2
Atom  19H    basis set group =>   2
Atom  20H    basis set group =>   2
---------------------------------
AUXILIARY/J BASIS SET INFORMATION
---------------------------------
There are 5 groups of distinct atoms

 Group   1 Type C   : 12s5p4d2f1g contracted to 6s4p3d1f1g pattern {711111/2111/211/2/1}
 Group   2 Type H   : 5s2p1d contracted to 3s1p1d pattern {311/2/1}
 Group   3 Type O   : 12s5p4d2f1g contracted to 6s4p3d1f1g pattern {711111/2111/211/2/1}
 Group   4 Type S   : 14s5p5d2f1g contracted to 8s4p3d1f1g pattern {71111111/2111/311/2/1}
 Group   5 Type N   : 12s5p4d2f1g contracted to 6s4p3d1f1g pattern {711111/2111/211/2/1}

Atom   0C    basis set group =>   1
Atom   1C    basis set group =>   1
Atom   2H    basis set group =>   2
Atom   3C    basis set group =>   1
Atom   4H    basis set group =>   2
Atom   5C    basis set group =>   1
Atom   6O    basis set group =>   3
Atom   7C    basis set group =>   1
Atom   8H    basis set group =>   2
Atom   9C    basis set group =>   1
Atom  10H    basis set group =>   2
Atom  11S    basis set group =>   4
Atom  12O    basis set group =>   3
Atom  13O    basis set group =>   3
Atom  14N    basis set group =>   5
Atom  15H    basis set group =>   2
Atom  16H    basis set group =>   2
Atom  17C    basis set group =>   1
Atom  18H    basis set group =>   2
Atom  19H    basis set group =>   2
Atom  20H    basis set group =>   2
---------------------------------
AUXILIARY/C BASIS SET INFORMATION
---------------------------------
There are 5 groups of distinct atoms

 Group   1 Type C   : 9s7p6d4f2g contracted to 9s7p6d4f2g pattern {111111111/1111111/111111/1111/11}
 Group   2 Type H   : 5s4p3d2f contracted to 5s4p3d2f pattern {11111/1111/111/11}
 Group   3 Type O   : 9s7p6d4f2g contracted to 9s7p6d4f2g pattern {111111111/1111111/111111/1111/11}
 Group   4 Type S   : 11s9p8d6f3g contracted to 11s9p8d6f3g pattern {11111111111/111111111/11111111/111111/111}
 Group   5 Type N   : 9s7p6d4f2g contracted to 9s7p6d4f2g pattern {111111111/1111111/111111/1111/11}

Atom   0C    basis set group =>   1
Atom   1C    basis set group =>   1
Atom   2H    basis set group =>   2
Atom   3C    basis set group =>   1
Atom   4H    basis set group =>   2
Atom   5C    basis set group =>   1
Atom   6O    basis set group =>   3
Atom   7C    basis set group =>   1
Atom   8H    basis set group =>   2
Atom   9C    basis set group =>   1
Atom  10H    basis set group =>   2
Atom  11S    basis set group =>   4
Atom  12O    basis set group =>   3
Atom  13O    basis set group =>   3
Atom  14N    basis set group =>   5
Atom  15H    basis set group =>   2
Atom  16H    basis set group =>   2
Atom  17C    basis set group =>   1
Atom  18H    basis set group =>   2
Atom  19H    basis set group =>   2
Atom  20H    basis set group =>   2


           ************************************************************
           *        Program running with 8 parallel MPI-processes     *
           *              working on a common directory               *
           ************************************************************
------------------------------------------------------------------------------
                           ORCA GTO INTEGRAL CALCULATION
                           -- RI-GTO INTEGRALS CHOSEN --
------------------------------------------------------------------------------
------------------------------------------------------------------------------
                   ___                                                        
                  /   \      - P O W E R E D   B Y -                         
                 /     \                                                     
                 |  |  |   _    _      __       _____    __    __             
                 |  |  |  | |  | |    /  \     |  _  \  |  |  /  |          
                  \  \/   | |  | |   /    \    | | | |  |  | /  /          
                 / \  \   | |__| |  /  /\  \   | |_| |  |  |/  /          
                |  |  |   |  __  | /  /__\  \  |    /   |      \           
                |  |  |   | |  | | |   __   |  |    \   |  |\   \          
                \     /   | |  | | |  |  |  |  | |\  \  |  | \   \       
                 \___/    |_|  |_| |__|  |__|  |_| \__\ |__|  \__/        
                                                                              
                      - O R C A' S   B I G   F R I E N D -                    
                                      &                                       
                       - I N T E G R A L  F E E D E R -                       
                                                                              
 v1 FN, 2020, v2 2021                                                         
------------------------------------------------------------------------------


Reading SHARK input file HA.9.avtz.SHARKINP.tmp ... ok
----------------------
SHARK INTEGRAL PACKAGE
----------------------

Number of atoms                             ...     21
Number of basis functions                   ...    854
Number of shells                            ...    332
Maximum angular momentum                    ...      3
Integral batch strategy                     ... SHARK/LIBINT Hybrid
RI-J (if used) integral strategy            ... SPLIT-RIJ (Revised 2003 algorithm where possible)
Printlevel                                  ...      1
Contraction scheme used                     ... PARTIAL GENERAL contraction
Coulomb Range Separation                    ... NOT USED
Exchange Range Separation                   ... NOT USED
Finite Nucleus Model                        ... NOT USED
Auxiliary Coulomb fitting basis             ... AVAILABLE
   # of basis functions in Aux-J            ...    689
   # of shells in Aux-J                     ...    227
   Maximum angular momentum in Aux-J        ...      4
Auxiliary J/K fitting basis                 ... NOT available
Auxiliary Correlation fitting basis         ... AVAILABLE
   # of basis functions in Aux-C            ...   1727
   # of shells in Aux-C                     ...    471
   Maximum angular momentum in Aux-C        ...      4
Auxiliary 'external' fitting basis          ... NOT available
Integral threshold                          ...     2.500000e-11
Primitive cut-off                           ...     2.500000e-12
Primitive pair pre-selection threshold      ...     2.500000e-12

Calculating pre-screening integrals         ... done (  0.1 sec) Dimension = 332
Calculating pre-screening integrals (ORCA)  ... done (  0.2 sec) Dimension = 251
Organizing shell pair data                  ... done (  0.4 sec)
Shell pair information
Total number of shell pairs                 ...     55278
Shell pairs after pre-screening             ...     42078
Total number of primitive shell pairs       ...     69438
Primitive shell pairs kept                  ...     49008
          la=0 lb=0:   9327 shell pairs
          la=1 lb=0:  10953 shell pairs
          la=1 lb=1:   2938 shell pairs
          la=2 lb=0:   7260 shell pairs
          la=2 lb=1:   3835 shell pairs
          la=2 lb=2:   1305 shell pairs
          la=3 lb=0:   3310 shell pairs
          la=3 lb=1:   1728 shell pairs
          la=3 lb=2:   1151 shell pairs
          la=3 lb=3:    271 shell pairs

Calculating one electron integrals          ... done (  0.1 sec)
Calculating RI/J V-Matrix + Cholesky decomp.... done (  0.0 sec)
Calculating RI/C V-Matrix + Cholesky decomp.... done (  0.1 sec)
Calculating Nuclear repulsion               ... done (  0.0 sec) ENN=    826.154259407901 Eh

SHARK setup successfully completed in   1.4 seconds

Maximum memory used throughout the entire GTOINT-calculation: 80.4 MB


           ************************************************************
           *        Program running with 8 parallel MPI-processes     *
           *              working on a common directory               *
           ************************************************************
-------------------------------------------------------------------------------
                                 ORCA SCF
-------------------------------------------------------------------------------

------------
SCF SETTINGS
------------
Hamiltonian:
 Density Functional     Method          .... DFT(GTOs)
 Exchange Functional    Exchange        .... PBE
   PBE kappa parameter   XKappa         ....  0.804000
   PBE mue parameter    XMuePBE         ....  0.219520
 Correlation Functional Correlation     .... P86
 LDA part of GGA corr.  LDAOpt          .... VWN-5
 Gradients option       PostSCFGGA      .... off
 Hybrid DFT is turned on
   Fraction HF Exchange ScalHFX         ....  0.700000
   Scaling of DF-GGA-X  ScalDFX         ....  0.300000
   Scaling of DF-GGA-C  ScalDFC         ....  0.430000
   Scaling of DF-LDA-C  ScalLDAC        ....  0.430000
   Perturbative correction              ....  1.000000
   Density functional embedding theory  .... OFF
   NL short-range parameter             .... 14.200000
 RI-approximation to the Coulomb term is turned on
   Number of AuxJ basis functions       .... 689
   RIJ-COSX (HFX calculated with COS-X)).... on


General Settings:
 Integral files         IntName         .... HA.9.avtz
 Hartree-Fock type      HFTyp           .... RHF
 Total Charge           Charge          ....    0
 Multiplicity           Mult            ....    1
 Number of Electrons    NEL             ....   98
 Basis Dimension        Dim             ....  763
 Nuclear Repulsion      ENuc            ....    826.1542594079 Eh

Convergence Acceleration:
 DIIS                   CNVDIIS         .... on
   Start iteration      DIISMaxIt       ....    12
   Startup error        DIISStart       ....  0.200000
   # of expansion vecs  DIISMaxEq       ....     5
   Bias factor          DIISBfac        ....   1.050
   Max. coefficient     DIISMaxC        ....  10.000
 Trust-Rad. Augm. Hess. CNVTRAH         .... auto
   Auto Start mean grad. ratio tolernc. ....  1.125000
   Auto Start start iteration           ....    20
   Auto Start num. interpolation iter.  ....    10
   Max. Number of Micro iterations      ....    16
   Max. Number of Macro iterations      .... Maxiter - #DIIS iter
   Number of Davidson start vectors     ....     2
   Converg. threshold I  (grad. norm)   ....   1.000e-05
   Converg. threshold II (energy diff.) ....   1.000e-08
   Grad. Scal. Fac. for Micro threshold ....   0.100
   Minimum threshold for Micro iter.    ....   0.010
   NR start threshold (gradient norm)   ....   0.001
   Initial trust radius                 ....   0.400
   Minimum AH scaling param. (alpha)    ....   1.000
   Maximum AH scaling param. (alpha)    .... 1000.000
   Orbital update algorithm             .... Taylor
   White noise on init. David. guess    .... on
   Maximum white noise                  ....   0.010
   Quad. conv. algorithm                .... NR
 SOSCF                  CNVSOSCF        .... on
   Start iteration      SOSCFMaxIt      ....   150
   Startup grad/error   SOSCFStart      ....  0.003300
 Level Shifting         CNVShift        .... on
   Level shift para.    LevelShift      ....    0.2500
   Turn off err/grad.   ShiftErr        ....    0.0010
 Zerner damping         CNVZerner       .... off
 Static damping         CNVDamp         .... on
   Fraction old density DampFac         ....    0.7000
   Max. Damping (<1)    DampMax         ....    0.9800
   Min. Damping (>=0)   DampMin         ....    0.0000
   Turn off err/grad.   DampErr         ....    0.1000
 Fernandez-Rico         CNVRico         .... off

SCF Procedure:
 Maximum # iterations   MaxIter         ....   125
 SCF integral mode      SCFMode         .... Direct
   Integral package                     .... SHARK and LIBINT hybrid scheme
 Reset frequency        DirectResetFreq ....    20
 Integral Threshold     Thresh          ....  2.500e-11 Eh
 Primitive CutOff       TCut            ....  2.500e-12 Eh

Convergence Tolerance:
 Convergence Check Mode ConvCheckMode   .... Total+1el-Energy
 Convergence forced     ConvForced      .... 0
 Energy Change          TolE            ....  1.000e-08 Eh
 1-El. energy change                    ....  1.000e-05 Eh
 Orbital Gradient       TolG            ....  1.000e-05
 Orbital Rotation angle TolX            ....  1.000e-05
 DIIS Error             TolErr          ....  5.000e-07


Diagonalization of the overlap matrix:
Smallest eigenvalue                        ... 4.846e-07
Time for diagonalization                   ...    0.095 sec
Threshold for overlap eigenvalues          ... 1.000e-08
Number of eigenvalues below threshold      ... 0
Time for construction of square roots      ...    0.052 sec
Total time needed                          ...    0.152 sec

Time for model grid setup =    0.136 sec

------------------------------
INITIAL GUESS: MODEL POTENTIAL
------------------------------
Loading Hartree-Fock densities                     ... done
Calculating cut-offs                               ... done
Initializing the effective Hamiltonian             ... done
Setting up the integral package (SHARK)            ... done
Starting the Coulomb interaction                   ... done (   0.4 sec)
Reading the grid                                   ... done
Mapping shells                                     ... done
Starting the XC term evaluation                    ... done (   0.4 sec)
  promolecular density results
     # of electrons  =     97.999399467
     EX              =    -94.480625799
     EC              =     -0.016373943
     EX+EC           =    -94.496999742
Transforming the Hamiltonian                       ... done (   0.0 sec)
Diagonalizing the Hamiltonian                      ... done (   0.1 sec)
Back transforming the eigenvectors                 ... done (   0.0 sec)
Now organizing SCF variables                       ... done
                      ------------------
                      INITIAL GUESS DONE (   1.1 sec)
                      ------------------
-------------------
DFT GRID GENERATION
-------------------

General Integration Accuracy     IntAcc      ... 4.388
Radial Grid Type                 RadialGrid  ... OptM3 with GC (2021)
Angular Grid (max. ang.)         AngularGrid ... 4 (Lebedev-302)
Angular grid pruning method      GridPruning ... 4 (adaptive)
Weight generation scheme         WeightScheme... Becke
Basis function cutoff            BFCut       ... 1.0000e-11
Integration weight cutoff        WCut        ... 1.0000e-14
Angular grids for H and He will be reduced by one unit
Partially contracted basis set               ... off
Rotationally invariant grid construction     ... off

Total number of grid points                  ...   107274
Total number of batches                      ...     1685
Average number of points per batch           ...       63
Average number of grid points per atom       ...     5108
Time for grid setup =    0.574 sec

--------------------
COSX GRID GENERATION
--------------------

GRIDX 1
-------
General Integration Accuracy     IntAcc      ... 3.816
Radial Grid Type                 RadialGrid  ... OptM3 with GC (2021)
Angular Grid (max. ang.)         AngularGrid ... 1 (Lebedev-50)
Angular grid pruning method      GridPruning ... 4 (adaptive)
Weight generation scheme         WeightScheme... Becke
Basis function cutoff            BFCut       ... 1.0000e-11
Integration weight cutoff        WCut        ... 1.0000e-14
Angular grids for H and He will be reduced by one unit
Partially contracted basis set               ... on
Rotationally invariant grid construction     ... off

Total number of grid points                  ...    13388
Total number of batches                      ...      217
Average number of points per batch           ...       61
Average number of grid points per atom       ...      638
UseSFitting                                  ... on

GRIDX 2
-------
General Integration Accuracy     IntAcc      ... 4.020
Radial Grid Type                 RadialGrid  ... OptM3 with GC (2021)
Angular Grid (max. ang.)         AngularGrid ... 2 (Lebedev-110)
Angular grid pruning method      GridPruning ... 4 (adaptive)
Weight generation scheme         WeightScheme... Becke
Basis function cutoff            BFCut       ... 1.0000e-11
Integration weight cutoff        WCut        ... 1.0000e-14
Angular grids for H and He will be reduced by one unit
Partially contracted basis set               ... on
Rotationally invariant grid construction     ... off

Total number of grid points                  ...    32595
Total number of batches                      ...      521
Average number of points per batch           ...       62
Average number of grid points per atom       ...     1552
UseSFitting                                  ... on

GRIDX 3
-------
General Integration Accuracy     IntAcc      ... 4.338
Radial Grid Type                 RadialGrid  ... OptM3 with GC (2021)
Angular Grid (max. ang.)         AngularGrid ... 3 (Lebedev-194)
Angular grid pruning method      GridPruning ... 4 (adaptive)
Weight generation scheme         WeightScheme... Becke
Basis function cutoff            BFCut       ... 1.0000e-11
Integration weight cutoff        WCut        ... 1.0000e-14
Angular grids for H and He will be reduced by one unit
Partially contracted basis set               ... on
Rotationally invariant grid construction     ... off

Total number of grid points                  ...    72803
Total number of batches                      ...     1148
Average number of points per batch           ...       63
Average number of grid points per atom       ...     3467
UseSFitting                                  ... on

Time for X-Grid setup             =    1.235 sec

 re-compute Schwartz prescreening matrix in partically contracted basis (1) ...done (   0.097 sec)
--------------
SCF ITERATIONS
--------------
ITER       Energy         Delta-E        Max-DP      RMS-DP      [F,P]     Damp
               ***  Starting incremental Fock matrix formation  ***
  0   -948.1435206002   0.000000000000 0.30552174  0.00178089  0.2878576 0.7000
  1   -948.3110448559  -0.167524255736 0.24472203  0.00130005  0.1461843 0.7000
                               ***Turning on DIIS***
  2   -948.3936446421  -0.082599786152 0.56645346  0.00289649  0.0717631 0.0000
  3   -948.5366894434  -0.143044801320 0.11207496  0.00085317  0.0619197 0.0000
  4   -948.5550622937  -0.018372850305 0.01393193  0.00018191  0.0073873 0.0000
  5   -948.5556770334  -0.000614739695 0.00979549  0.00009368  0.0050621 0.0000
                      *** Initiating the SOSCF procedure ***
                           *** Shutting down DIIS ***
                      *** Re-Reading the Fockian *** 
                      *** Removing any level shift *** 
ITER      Energy       Delta-E        Grad      Rot      Max-DP    RMS-DP
  6   -948.55581776  -0.0001407270  0.000544  0.000544  0.002519  0.000035
               *** Restarting incremental Fock matrix formation ***
  7   -948.55586622  -0.0000484578  0.000254  0.000641  0.080642  0.001091
  8   -948.55587319  -0.0000069712  0.000080  0.000283  0.019978  0.000286
  9   -948.55587386  -0.0000006697  0.000069  0.000116  0.013975  0.000197
 10   -948.55587434  -0.0000004819  0.000024  0.000061  0.005829  0.000063
 11   -948.55587437  -0.0000000242  0.000010  0.000029  0.003820  0.000025
 12   -948.55587438  -0.0000000154  0.000004  0.000015  0.004521  0.000039
                  ***Gradient check signals convergence***
              ***Rediagonalizing the Fockian in SOSCF/NRSCF***

               *****************************************************
               *                     SUCCESS                       *
               *           SCF CONVERGED AFTER  13 CYCLES          *
               *****************************************************

Old exchange energy                            =    -67.206717194 Eh
New exchange energy                            =    -67.206861972 Eh
Exchange energy change after final integration =     -0.000144778 Eh
Total energy after final integration           =   -948.556019168 Eh
Final COS-X integration done in                =    21.989 sec

----------------
TOTAL SCF ENERGY
----------------

Total Energy       :         -948.55601917 Eh          -25811.52151 eV

Components:
Nuclear Repulsion  :          826.15425941 Eh           22480.80030 eV
Electronic Energy  :        -1774.71027858 Eh          -48292.32181 eV
One Electron Energy:        -2940.88048669 Eh          -80025.42646 eV
Two Electron Energy:         1166.17020812 Eh           31733.10464 eV
Max COSX asymmetry :            0.00001775 Eh               0.00048 eV

Virial components:
Potential Energy   :        -1894.39879088 Eh          -51549.21181 eV
Kinetic Energy     :          945.84277171 Eh           25737.69030 eV
Virial Ratio       :            2.00286860


DFT components:
N(Alpha)           :       49.000022112737 electrons
N(Beta)            :       49.000022112737 electrons
N(Total)           :       98.000044225473 electrons
E(X)               :      -28.697093006270 Eh       
E(C)               :       -1.626130381359 Eh       
E(XC)              :      -30.323223387629 Eh       
DFET-embed. en.    :        0.000000000000 Eh       

---------------
SCF CONVERGENCE
---------------

  Last Energy change         ...   -9.7646e-09  Tolerance :   1.0000e-08
  Last MAX-Density change    ...    4.4409e-15  Tolerance :   1.0000e-07
  Last RMS-Density change    ...    1.9369e-17  Tolerance :   5.0000e-09
  Last Orbital Gradient      ...    1.4849e-06  Tolerance :   1.0000e-05
  Last Orbital Rotation      ...    6.6561e-06  Tolerance :   1.0000e-05

             **** THE GBW FILE WAS UPDATED (HA.9.avtz.gbw) ****
             **** DENSITY HA.9.avtz.scfp WAS UPDATED ****
             **** ENERGY FILE WAS UPDATED (HA.9.avtz.en.tmp) ****
             **** THE GBW FILE WAS UPDATED (HA.9.avtz.gbw) ****
             **** DENSITY HA.9.avtz.scfp WAS UPDATED ****
----------------
ORBITAL ENERGIES
----------------

  NO   OCC          E(Eh)            E(eV) 
   0   2.0000     -91.037457     -2477.2551 
   1   2.0000     -20.077466      -546.3356 
   2   2.0000     -20.012722      -544.5739 
   3   2.0000     -20.012393      -544.5649 
   4   2.0000     -15.134525      -411.8314 
   5   2.0000     -10.930411      -297.4316 
   6   2.0000     -10.902700      -296.6775 
   7   2.0000     -10.875334      -295.9329 
   8   2.0000     -10.872974      -295.8687 
   9   2.0000     -10.871045      -295.8162 
  10   2.0000     -10.859742      -295.5086 
  11   2.0000     -10.855773      -295.4006 
  12   2.0000      -8.780336      -238.9251 
  13   2.0000      -6.566495      -178.6834 
  14   2.0000      -6.565098      -178.6454 
  15   2.0000      -6.563639      -178.6057 
  16   2.0000      -1.334633       -36.3172 
  17   2.0000      -1.316318       -35.8188 
  18   2.0000      -1.220400       -33.2088 
  19   2.0000      -1.107064       -30.1248 
  20   2.0000      -1.075362       -29.2621 
  21   2.0000      -0.963649       -26.2222 
  22   2.0000      -0.952566       -25.9206 
  23   2.0000      -0.886773       -24.1303 
  24   2.0000      -0.810330       -22.0502 
  25   2.0000      -0.783627       -21.3236 
  26   2.0000      -0.740300       -20.1446 
  27   2.0000      -0.689172       -18.7533 
  28   2.0000      -0.662074       -18.0160 
  29   2.0000      -0.656172       -17.8553 
  30   2.0000      -0.631158       -17.1747 
  31   2.0000      -0.614498       -16.7213 
  32   2.0000      -0.612451       -16.6656 
  33   2.0000      -0.587539       -15.9877 
  34   2.0000      -0.565321       -15.3832 
  35   2.0000      -0.558402       -15.1949 
  36   2.0000      -0.543523       -14.7900 
  37   2.0000      -0.533585       -14.5196 
  38   2.0000      -0.504181       -13.7195 
  39   2.0000      -0.489617       -13.3232 
  40   2.0000      -0.457564       -12.4509 
  41   2.0000      -0.452851       -12.3227 
  42   2.0000      -0.449943       -12.2436 
  43   2.0000      -0.437079       -11.8935 
  44   2.0000      -0.419322       -11.4103 
  45   2.0000      -0.416013       -11.3203 
  46   2.0000      -0.404452       -11.0057 
  47   2.0000      -0.342816        -9.3285 
  48   2.0000      -0.313406        -8.5282 
  49   0.0000       0.008408         0.2288 
  50   0.0000       0.016339         0.4446 
  51   0.0000       0.022502         0.6123 
  52   0.0000       0.030873         0.8401 
  53   0.0000       0.033248         0.9047 
  54   0.0000       0.035115         0.9555 
  55   0.0000       0.037318         1.0155 
  56   0.0000       0.042047         1.1442 
  57   0.0000       0.050507         1.3744 
  58   0.0000       0.056346         1.5332 
  59   0.0000       0.058500         1.5919 
  60   0.0000       0.070675         1.9232 
  61   0.0000       0.078422         2.1340 
  62   0.0000       0.084299         2.2939 
  63   0.0000       0.088896         2.4190 
  64   0.0000       0.092349         2.5129 
  65   0.0000       0.093116         2.5338 
  66   0.0000       0.096845         2.6353 
  67   0.0000       0.100375         2.7314 
  68   0.0000       0.106526         2.8987 
  69   0.0000       0.110017         2.9937 
  70   0.0000       0.114176         3.1069 
  71   0.0000       0.118765         3.2318 
  72   0.0000       0.119622         3.2551 
  73   0.0000       0.125267         3.4087 
  74   0.0000       0.126817         3.4509 
  75   0.0000       0.128531         3.4975 
  76   0.0000       0.129216         3.5161 
  77   0.0000       0.134532         3.6608 
  78   0.0000       0.143703         3.9104 
  79   0.0000       0.147630         4.0172 
  80   0.0000       0.150104         4.0845 
  81   0.0000       0.156764         4.2658 
  82   0.0000       0.159060         4.3282 
  83   0.0000       0.159832         4.3493 
  84   0.0000       0.168213         4.5773 
  85   0.0000       0.172854         4.7036 
  86   0.0000       0.180670         4.9163 
  87   0.0000       0.184389         5.0175 
  88   0.0000       0.196610         5.3500 
  89   0.0000       0.199376         5.4253 
  90   0.0000       0.201408         5.4806 
  91   0.0000       0.205201         5.5838 
  92   0.0000       0.213229         5.8022 
  93   0.0000       0.215768         5.8713 
  94   0.0000       0.220891         6.0107 
  95   0.0000       0.224643         6.1129 
  96   0.0000       0.225442         6.1346 
  97   0.0000       0.229352         6.2410 
  98   0.0000       0.232403         6.3240 
  99   0.0000       0.236613         6.4386 
 100   0.0000       0.238914         6.5012 
 101   0.0000       0.244337         6.6488 
 102   0.0000       0.248175         6.7532 
 103   0.0000       0.249181         6.7806 
 104   0.0000       0.251473         6.8429 
 105   0.0000       0.252818         6.8795 
 106   0.0000       0.260157         7.0792 
 107   0.0000       0.265929         7.2363 
 108   0.0000       0.270151         7.3512 
 109   0.0000       0.272260         7.4086 
 110   0.0000       0.276894         7.5347 
 111   0.0000       0.278401         7.5757 
 112   0.0000       0.281737         7.6665 
 113   0.0000       0.286147         7.7865 
 114   0.0000       0.289153         7.8682 
 115   0.0000       0.291677         7.9369 
 116   0.0000       0.293330         7.9819 
 117   0.0000       0.302464         8.2305 
 118   0.0000       0.309911         8.4331 
 119   0.0000       0.314873         8.5681 
 120   0.0000       0.317442         8.6380 
 121   0.0000       0.319187         8.6855 
 122   0.0000       0.320238         8.7141 
 123   0.0000       0.326099         8.8736 
 124   0.0000       0.332913         9.0590 
 125   0.0000       0.339424         9.2362 
 126   0.0000       0.344017         9.3612 
 127   0.0000       0.346341         9.4244 
 128   0.0000       0.350527         9.5383 
 129   0.0000       0.353140         9.6094 
 130   0.0000       0.356495         9.7007 
 131   0.0000       0.364183         9.9099 
 132   0.0000       0.367515        10.0006 
 133   0.0000       0.380320        10.3490 
 134   0.0000       0.383119        10.4252 
 135   0.0000       0.391884        10.6637 
 136   0.0000       0.393851        10.7172 
 137   0.0000       0.399651        10.8751 
 138   0.0000       0.403918        10.9912 
 139   0.0000       0.406795        11.0695 
 140   0.0000       0.408611        11.1189 
 141   0.0000       0.411748        11.2042 
 142   0.0000       0.413780        11.2595 
 143   0.0000       0.416465        11.3326 
 144   0.0000       0.422141        11.4870 
 145   0.0000       0.424145        11.5416 
 146   0.0000       0.433014        11.7829 
 147   0.0000       0.434854        11.8330 
 148   0.0000       0.438284        11.9263 
 149   0.0000       0.438865        11.9421 
 150   0.0000       0.442902        12.0520 
 151   0.0000       0.448297        12.1988 
 152   0.0000       0.452694        12.3184 
 153   0.0000       0.455823        12.4036 
 154   0.0000       0.464405        12.6371 
 155   0.0000       0.465213        12.6591 
 156   0.0000       0.466745        12.7008 
 157   0.0000       0.470160        12.7937 
 158   0.0000       0.473366        12.8809 
 159   0.0000       0.478571        13.0226 
 160   0.0000       0.484163        13.1747 
 161   0.0000       0.490466        13.3463 
 162   0.0000       0.493435        13.4271 
 163   0.0000       0.497546        13.5389 
 164   0.0000       0.499871        13.6022 
 165   0.0000       0.506811        13.7910 
 166   0.0000       0.513578        13.9752 
 167   0.0000       0.518290        14.1034 
 168   0.0000       0.521861        14.2006 
 169   0.0000       0.525082        14.2882 
 170   0.0000       0.533483        14.5168 
 171   0.0000       0.540529        14.7085 
 172   0.0000       0.552732        15.0406 
 173   0.0000       0.554694        15.0940 
 174   0.0000       0.559563        15.2265 
 175   0.0000       0.561046        15.2668 
 176   0.0000       0.570918        15.5355 
 177   0.0000       0.576202        15.6793 
 178   0.0000       0.576870        15.6974 
 179   0.0000       0.580602        15.7990 
 180   0.0000       0.586270        15.9532 
 181   0.0000       0.589650        16.0452 
 182   0.0000       0.603728        16.4283 
 183   0.0000       0.607893        16.5416 
 184   0.0000       0.614223        16.7139 
 185   0.0000       0.617370        16.7995 
 186   0.0000       0.620679        16.8895 
 187   0.0000       0.633612        17.2415 
 188   0.0000       0.636457        17.3189 
 189   0.0000       0.649181        17.6651 
 190   0.0000       0.652597        17.7581 
 191   0.0000       0.660639        17.9769 
 192   0.0000       0.663314        18.0497 
 193   0.0000       0.671809        18.2808 
 194   0.0000       0.674186        18.3455 
 195   0.0000       0.690713        18.7953 
 196   0.0000       0.695791        18.9334 
 197   0.0000       0.704297        19.1649 
 198   0.0000       0.709672        19.3112 
 199   0.0000       0.712523        19.3887 
 200   0.0000       0.718568        19.5532 
 201   0.0000       0.724761        19.7218 
 202   0.0000       0.730216        19.8702 
 203   0.0000       0.739289        20.1171 
 204   0.0000       0.743349        20.2276 
 205   0.0000       0.753385        20.5007 
 206   0.0000       0.760141        20.6845 
 207   0.0000       0.766723        20.8636 
 208   0.0000       0.773571        21.0499 
 209   0.0000       0.780517        21.2390 
 210   0.0000       0.787062        21.4170 
 211   0.0000       0.790365        21.5069 
 212   0.0000       0.798607        21.7312 
 213   0.0000       0.800442        21.7811 
 214   0.0000       0.805964        21.9314 
 215   0.0000       0.809627        22.0311 
 216   0.0000       0.813601        22.1392 
 217   0.0000       0.817410        22.2429 
 218   0.0000       0.821469        22.3533 
 219   0.0000       0.826000        22.4766 
 220   0.0000       0.835996        22.7486 
 221   0.0000       0.840085        22.8599 
 222   0.0000       0.844960        22.9925 
 223   0.0000       0.850519        23.1438 
 224   0.0000       0.852747        23.2044 
 225   0.0000       0.853269        23.2186 
 226   0.0000       0.859587        23.3905 
 227   0.0000       0.860266        23.4090 
 228   0.0000       0.870174        23.6786 
 229   0.0000       0.876584        23.8531 
 230   0.0000       0.880354        23.9556 
 231   0.0000       0.883621        24.0446 
 232   0.0000       0.889094        24.1935 
 233   0.0000       0.891067        24.2472 
 234   0.0000       0.896805        24.4033 
 235   0.0000       0.900601        24.5066 
 236   0.0000       0.906874        24.6773 
 237   0.0000       0.922487        25.1022 
 238   0.0000       0.924332        25.1524 
 239   0.0000       0.928711        25.2715 
 240   0.0000       0.937117        25.5003 
 241   0.0000       0.942080        25.6353 
 242   0.0000       0.951300        25.8862 
 243   0.0000       0.954486        25.9729 
 244   0.0000       0.957995        26.0684 
 245   0.0000       0.962915        26.2023 
 246   0.0000       0.967119        26.3166 
 247   0.0000       0.971929        26.4475 
 248   0.0000       0.972956        26.4755 
 249   0.0000       0.982098        26.7242 
 250   0.0000       0.985781        26.8245 
 251   0.0000       0.993242        27.0275 
 252   0.0000       0.998268        27.1643 
 253   0.0000       1.002452        27.2781 
 254   0.0000       1.005382        27.3578 
 255   0.0000       1.008984        27.4558 
 256   0.0000       1.013887        27.5893 
 257   0.0000       1.014801        27.6141 
 258   0.0000       1.017362        27.6838 
 259   0.0000       1.026367        27.9289 
 260   0.0000       1.033445        28.1215 
 261   0.0000       1.038978        28.2720 
 262   0.0000       1.041946        28.3528 
 263   0.0000       1.044970        28.4351 
 264   0.0000       1.046483        28.4762 
 265   0.0000       1.052685        28.6450 
 266   0.0000       1.059329        28.8258 
 267   0.0000       1.063677        28.9441 
 268   0.0000       1.070815        29.1384 
 269   0.0000       1.077288        29.3145 
 270   0.0000       1.082440        29.4547 
 271   0.0000       1.083587        29.4859 
 272   0.0000       1.087730        29.5986 
 273   0.0000       1.090040        29.6615 
 274   0.0000       1.095046        29.7977 
 275   0.0000       1.100222        29.9386 
 276   0.0000       1.104437        30.0533 
 277   0.0000       1.112084        30.2614 
 278   0.0000       1.116450        30.3801 
 279   0.0000       1.118709        30.4416 
 280   0.0000       1.134085        30.8600 
 281   0.0000       1.135454        30.8973 
 282   0.0000       1.142117        31.0786 
 283   0.0000       1.144913        31.1547 
 284   0.0000       1.150259        31.3001 
 285   0.0000       1.165660        31.7192 
 286   0.0000       1.169393        31.8208 
 287   0.0000       1.175536        31.9880 
 288   0.0000       1.179658        32.1001 
 289   0.0000       1.184757        32.2389 
 290   0.0000       1.189009        32.3546 
 291   0.0000       1.197389        32.5826 
 292   0.0000       1.200022        32.6543 
 293   0.0000       1.209870        32.9222 
 294   0.0000       1.214836        33.0574 
 295   0.0000       1.218491        33.1568 
 296   0.0000       1.226747        33.3815 
 297   0.0000       1.229564        33.4581 
 298   0.0000       1.238214        33.6935 
 299   0.0000       1.240831        33.7647 
 300   0.0000       1.248688        33.9785 
 301   0.0000       1.258883        34.2559 
 302   0.0000       1.262144        34.3447 
 303   0.0000       1.269890        34.5555 
 304   0.0000       1.271511        34.5996 
 305   0.0000       1.280360        34.8404 
 306   0.0000       1.286105        34.9967 
 307   0.0000       1.293668        35.2025 
 308   0.0000       1.303068        35.4583 
 309   0.0000       1.309377        35.6300 
 310   0.0000       1.320919        35.9440 
 311   0.0000       1.331415        36.2297 
 312   0.0000       1.336775        36.3755 
 313   0.0000       1.351722        36.7822 
 314   0.0000       1.352825        36.8122 
 315   0.0000       1.362336        37.0710 
 316   0.0000       1.362721        37.0815 
 317   0.0000       1.379409        37.5356 
 318   0.0000       1.387883        37.7662 
 319   0.0000       1.393433        37.9172 
 320   0.0000       1.396439        37.9990 
 321   0.0000       1.406426        38.2708 
 322   0.0000       1.414618        38.4937 
 323   0.0000       1.427685        38.8493 
 324   0.0000       1.431696        38.9584 
 325   0.0000       1.443846        39.2890 
 326   0.0000       1.451415        39.4950 
 327   0.0000       1.462346        39.7925 
 328   0.0000       1.464199        39.8429 
 329   0.0000       1.469929        39.9988 
 330   0.0000       1.474616        40.1263 
 331   0.0000       1.485381        40.4193 
 332   0.0000       1.491849        40.5953 
 333   0.0000       1.497955        40.7614 
 334   0.0000       1.508406        41.0458 
 335   0.0000       1.515597        41.2415 
 336   0.0000       1.525737        41.5174 
 337   0.0000       1.527484        41.5649 
 338   0.0000       1.535384        41.7799 
 339   0.0000       1.542177        41.9648 
 340   0.0000       1.547851        42.1192 
 341   0.0000       1.554023        42.2871 
 342   0.0000       1.560086        42.4521 
 343   0.0000       1.567577        42.6559 
 344   0.0000       1.582810        43.0704 
 345   0.0000       1.590701        43.2852 
 346   0.0000       1.596607        43.4459 
 347   0.0000       1.606946        43.7272 
 348   0.0000       1.609070        43.7850 
 349   0.0000       1.613549        43.9069 
 350   0.0000       1.619359        44.0650 
 351   0.0000       1.624039        44.1923 
 352   0.0000       1.628568        44.3156 
 353   0.0000       1.636630        44.5350 
 354   0.0000       1.649960        44.8977 
 355   0.0000       1.658709        45.1358 
 356   0.0000       1.666808        45.3562 
 357   0.0000       1.675592        45.5952 
 358   0.0000       1.689538        45.9747 
 359   0.0000       1.702063        46.3155 
 360   0.0000       1.705662        46.4134 
 361   0.0000       1.710516        46.5455 
 362   0.0000       1.720252        46.8104 
 363   0.0000       1.731415        47.1142 
 364   0.0000       1.735831        47.2344 
 365   0.0000       1.745487        47.4971 
 366   0.0000       1.750284        47.6276 
 367   0.0000       1.762462        47.9590 
 368   0.0000       1.775377        48.3105 
 369   0.0000       1.787956        48.6528 
 370   0.0000       1.793269        48.7973 
 371   0.0000       1.798908        48.9508 
 372   0.0000       1.815866        49.4122 
 373   0.0000       1.821196        49.5573 
 374   0.0000       1.831108        49.8270 
 375   0.0000       1.842807        50.1453 
 376   0.0000       1.849051        50.3152 
 377   0.0000       1.850181        50.3460 
 378   0.0000       1.858133        50.5624 
 379   0.0000       1.869503        50.8718 
 380   0.0000       1.881661        51.2026 
 381   0.0000       1.892377        51.4942 
 382   0.0000       1.898046        51.6485 
 383   0.0000       1.904658        51.8284 
 384   0.0000       1.915455        52.1222 
 385   0.0000       1.917488        52.1775 
 386   0.0000       1.923908        52.3522 
 387   0.0000       1.930476        52.5309 
 388   0.0000       1.934995        52.6539 
 389   0.0000       1.951023        53.0900 
 390   0.0000       1.953276        53.1513 
 391   0.0000       1.967474        53.5377 
 392   0.0000       1.975367        53.7525 
 393   0.0000       1.976246        53.7764 
 394   0.0000       1.986264        54.0490 
 395   0.0000       1.992414        54.2164 
 396   0.0000       2.004168        54.5362 
 397   0.0000       2.017165        54.8899 
 398   0.0000       2.023616        55.0654 
 399   0.0000       2.025528        55.1174 
 400   0.0000       2.030280        55.2467 
 401   0.0000       2.049236        55.7625 
 402   0.0000       2.056186        55.9517 
 403   0.0000       2.068547        56.2880 
 404   0.0000       2.077972        56.5445 
 405   0.0000       2.082639        56.6715 
 406   0.0000       2.093343        56.9628 
 407   0.0000       2.098053        57.0909 
 408   0.0000       2.107347        57.3438 
 409   0.0000       2.114412        57.5361 
 410   0.0000       2.124648        57.8146 
 411   0.0000       2.131162        57.9919 
 412   0.0000       2.142424        58.2983 
 413   0.0000       2.149186        58.4823 
 414   0.0000       2.155107        58.6434 
 415   0.0000       2.167431        58.9788 
 416   0.0000       2.175160        59.1891 
 417   0.0000       2.189298        59.5738 
 418   0.0000       2.193758        59.6952 
 419   0.0000       2.204001        59.9739 
 420   0.0000       2.209231        60.1162 
 421   0.0000       2.232782        60.7571 
 422   0.0000       2.244399        61.0732 
 423   0.0000       2.253927        61.3325 
 424   0.0000       2.260416        61.5090 
 425   0.0000       2.269960        61.7688 
 426   0.0000       2.278437        61.9994 
 427   0.0000       2.286780        62.2264 
 428   0.0000       2.289956        62.3129 
 429   0.0000       2.311833        62.9082 
 430   0.0000       2.316729        63.0414 
 431   0.0000       2.323305        63.2203 
 432   0.0000       2.339511        63.6613 
 433   0.0000       2.340524        63.6889 
 434   0.0000       2.345443        63.8228 
 435   0.0000       2.358755        64.1850 
 436   0.0000       2.368300        64.4447 
 437   0.0000       2.380222        64.7691 
 438   0.0000       2.388012        64.9811 
 439   0.0000       2.393861        65.1403 
 440   0.0000       2.402224        65.3678 
 441   0.0000       2.410645        65.5970 
 442   0.0000       2.421904        65.9034 
 443   0.0000       2.431702        66.1700 
 444   0.0000       2.454617        66.7935 
 445   0.0000       2.463508        67.0355 
 446   0.0000       2.471798        67.2610 
 447   0.0000       2.488517        67.7160 
 448   0.0000       2.494436        67.8770 
 449   0.0000       2.510114        68.3037 
 450   0.0000       2.515815        68.4588 
 451   0.0000       2.531992        68.8990 
 452   0.0000       2.541898        69.1686 
 453   0.0000       2.551233        69.4226 
 454   0.0000       2.568999        69.9060 
 455   0.0000       2.585225        70.3476 
 456   0.0000       2.604976        70.8850 
 457   0.0000       2.617098        71.2148 
 458   0.0000       2.620363        71.3037 
 459   0.0000       2.641277        71.8728 
 460   0.0000       2.655109        72.2492 
 461   0.0000       2.678537        72.8867 
 462   0.0000       2.679325        72.9081 
 463   0.0000       2.687744        73.1372 
 464   0.0000       2.697431        73.4008 
 465   0.0000       2.702177        73.5300 
 466   0.0000       2.717057        73.9349 
 467   0.0000       2.724597        74.1401 
 468   0.0000       2.744058        74.6696 
 469   0.0000       2.749299        74.8122 
 470   0.0000       2.770503        75.3892 
 471   0.0000       2.789927        75.9178 
 472   0.0000       2.807531        76.3968 
 473   0.0000       2.818059        76.6833 
 474   0.0000       2.823137        76.8215 
 475   0.0000       2.832421        77.0741 
 476   0.0000       2.837240        77.2052 
 477   0.0000       2.868810        78.0643 
 478   0.0000       2.880594        78.3850 
 479   0.0000       2.892512        78.7093 
 480   0.0000       2.895970        78.8033 
 481   0.0000       2.917908        79.4003 
 482   0.0000       2.928664        79.6930 
 483   0.0000       2.938706        79.9663 
 484   0.0000       2.945646        80.1551 
 485   0.0000       2.958621        80.5082 
 486   0.0000       2.979761        81.0834 
 487   0.0000       3.028669        82.4143 
 488   0.0000       3.034957        82.5854 
 489   0.0000       3.038252        82.6750 
 490   0.0000       3.067818        83.4796 
 491   0.0000       3.086704        83.9935 
 492   0.0000       3.108516        84.5870 
 493   0.0000       3.131024        85.1995 
 494   0.0000       3.155601        85.8683 
 495   0.0000       3.158518        85.9476 
 496   0.0000       3.164440        86.1088 
 497   0.0000       3.199531        87.0637 
 498   0.0000       3.204510        87.1991 
 499   0.0000       3.217622        87.5559 
 500   0.0000       3.219858        87.6168 
 501   0.0000       3.233946        88.0001 
 502   0.0000       3.250324        88.4458 
 503   0.0000       3.278161        89.2033 
 504   0.0000       3.284469        89.3750 
 505   0.0000       3.296372        89.6989 
 506   0.0000       3.298597        89.7594 
 507   0.0000       3.308269        90.0226 
 508   0.0000       3.318695        90.3063 
 509   0.0000       3.326527        90.5194 
 510   0.0000       3.336329        90.7861 
 511   0.0000       3.344060        90.9965 
 512   0.0000       3.357315        91.3572 
 513   0.0000       3.365460        91.5788 
 514   0.0000       3.384997        92.1105 
 515   0.0000       3.405464        92.6674 
 516   0.0000       3.416158        92.9584 
 517   0.0000       3.420886        93.0871 
 518   0.0000       3.435822        93.4935 
 519   0.0000       3.448604        93.8413 
 520   0.0000       3.450984        93.9061 
 521   0.0000       3.463423        94.2445 
 522   0.0000       3.467196        94.3472 
 523   0.0000       3.482854        94.7733 
 524   0.0000       3.495494        95.1172 
 525   0.0000       3.505585        95.3918 
 526   0.0000       3.509743        95.5050 
 527   0.0000       3.537592        96.2628 
 528   0.0000       3.547927        96.5440 
 529   0.0000       3.560233        96.8789 
 530   0.0000       3.575625        97.2977 
 531   0.0000       3.585481        97.5659 
 532   0.0000       3.604310        98.0782 
 533   0.0000       3.616198        98.4018 
 534   0.0000       3.626210        98.6742 
 535   0.0000       3.646523        99.2269 
 536   0.0000       3.651289        99.3566 
 537   0.0000       3.660617        99.6105 
 538   0.0000       3.664730        99.7224 
 539   0.0000       3.681598       100.1814 
 540   0.0000       3.684453       100.2591 
 541   0.0000       3.700734       100.7021 
 542   0.0000       3.706309       100.8538 
 543   0.0000       3.717262       101.1518 
 544   0.0000       3.727345       101.4262 
 545   0.0000       3.733612       101.5967 
 546   0.0000       3.735530       101.6489 
 547   0.0000       3.752040       102.0982 
 548   0.0000       3.760275       102.3223 
 549   0.0000       3.765136       102.4546 
 550   0.0000       3.781858       102.9096 
 551   0.0000       3.784622       102.9848 
 552   0.0000       3.793911       103.2376 
 553   0.0000       3.818705       103.9123 
 554   0.0000       3.835822       104.3780 
 555   0.0000       3.850660       104.7818 
 556   0.0000       3.853273       104.8529 
 557   0.0000       3.857535       104.9689 
 558   0.0000       3.871748       105.3556 
 559   0.0000       3.881454       105.6197 
 560   0.0000       3.889283       105.8328 
 561   0.0000       3.902408       106.1899 
 562   0.0000       3.911796       106.4454 
 563   0.0000       3.935470       107.0896 
 564   0.0000       3.945770       107.3699 
 565   0.0000       3.969687       108.0207 
 566   0.0000       3.980403       108.3123 
 567   0.0000       3.997183       108.7689 
 568   0.0000       4.003702       108.9463 
 569   0.0000       4.011879       109.1688 
 570   0.0000       4.017623       109.3251 
 571   0.0000       4.029943       109.6603 
 572   0.0000       4.046744       110.1175 
 573   0.0000       4.072273       110.8122 
 574   0.0000       4.083969       111.1304 
 575   0.0000       4.089182       111.2723 
 576   0.0000       4.094510       111.4173 
 577   0.0000       4.105048       111.7040 
 578   0.0000       4.121573       112.1537 
 579   0.0000       4.128716       112.3481 
 580   0.0000       4.143341       112.7460 
 581   0.0000       4.159268       113.1794 
 582   0.0000       4.171603       113.5151 
 583   0.0000       4.172792       113.5474 
 584   0.0000       4.174558       113.5955 
 585   0.0000       4.190463       114.0283 
 586   0.0000       4.198682       114.2519 
 587   0.0000       4.212536       114.6289 
 588   0.0000       4.221380       114.8696 
 589   0.0000       4.229588       115.0929 
 590   0.0000       4.252026       115.7035 
 591   0.0000       4.265523       116.0708 
 592   0.0000       4.273336       116.2834 
 593   0.0000       4.275305       116.3370 
 594   0.0000       4.292484       116.8044 
 595   0.0000       4.295310       116.8813 
 596   0.0000       4.304202       117.1233 
 597   0.0000       4.309432       117.2656 
 598   0.0000       4.323795       117.6565 
 599   0.0000       4.325873       117.7130 
 600   0.0000       4.347128       118.2914 
 601   0.0000       4.357297       118.5681 
 602   0.0000       4.367745       118.8524 
 603   0.0000       4.381565       119.2285 
 604   0.0000       4.390619       119.4748 
 605   0.0000       4.403656       119.8296 
 606   0.0000       4.419960       120.2732 
 607   0.0000       4.451637       121.1352 
 608   0.0000       4.472451       121.7016 
 609   0.0000       4.498961       122.4229 
 610   0.0000       4.505584       122.6032 
 611   0.0000       4.519782       122.9895 
 612   0.0000       4.526580       123.1745 
 613   0.0000       4.531226       123.3009 
 614   0.0000       4.558475       124.0424 
 615   0.0000       4.562672       124.1566 
 616   0.0000       4.574281       124.4725 
 617   0.0000       4.588136       124.8495 
 618   0.0000       4.594995       125.0362 
 619   0.0000       4.604818       125.3035 
 620   0.0000       4.616345       125.6171 
 621   0.0000       4.631475       126.0288 
 622   0.0000       4.636228       126.1582 
 623   0.0000       4.668765       127.0436 
 624   0.0000       4.679668       127.3403 
 625   0.0000       4.687929       127.5650 
 626   0.0000       4.700906       127.9182 
 627   0.0000       4.716633       128.3461 
 628   0.0000       4.729829       128.7052 
 629   0.0000       4.733409       128.8026 
 630   0.0000       4.749368       129.2369 
 631   0.0000       4.776872       129.9853 
 632   0.0000       4.790867       130.3661 
 633   0.0000       4.795717       130.4981 
 634   0.0000       4.820458       131.1713 
 635   0.0000       4.825586       131.3109 
 636   0.0000       4.840701       131.7222 
 637   0.0000       4.856204       132.1440 
 638   0.0000       4.866635       132.4279 
 639   0.0000       4.879286       132.7721 
 640   0.0000       4.889749       133.0568 
 641   0.0000       4.902005       133.3903 
 642   0.0000       4.923595       133.9778 
 643   0.0000       4.935808       134.3102 
 644   0.0000       4.941911       134.4762 
 645   0.0000       4.947419       134.6261 
 646   0.0000       4.965288       135.1124 
 647   0.0000       4.995572       135.9364 
 648   0.0000       5.005432       136.2047 
 649   0.0000       5.008834       136.2973 
 650   0.0000       5.019305       136.5822 
 651   0.0000       5.023890       136.7070 
 652   0.0000       5.030054       136.8747 
 653   0.0000       5.042341       137.2091 
 654   0.0000       5.062183       137.7490 
 655   0.0000       5.092131       138.5639 
 656   0.0000       5.096085       138.6715 
 657   0.0000       5.122156       139.3809 
 658   0.0000       5.137958       139.8109 
 659   0.0000       5.155243       140.2813 
 660   0.0000       5.168481       140.6415 
 661   0.0000       5.176788       140.8676 
 662   0.0000       5.209376       141.7543 
 663   0.0000       5.245147       142.7277 
 664   0.0000       5.256721       143.0427 
 665   0.0000       5.267241       143.3289 
 666   0.0000       5.278076       143.6238 
 667   0.0000       5.282636       143.7478 
 668   0.0000       5.288448       143.9060 
 669   0.0000       5.352967       145.6616 
 670   0.0000       5.377099       146.3183 
 671   0.0000       5.381726       146.4442 
 672   0.0000       5.423222       147.5734 
 673   0.0000       5.442235       148.0907 
 674   0.0000       5.472036       148.9017 
 675   0.0000       5.501511       149.7037 
 676   0.0000       5.504538       149.7861 
 677   0.0000       5.524326       150.3246 
 678   0.0000       5.535113       150.6181 
 679   0.0000       5.554024       151.1327 
 680   0.0000       5.589493       152.0978 
 681   0.0000       5.617203       152.8519 
 682   0.0000       5.662062       154.0726 
 683   0.0000       5.705615       155.2577 
 684   0.0000       5.732922       156.0007 
 685   0.0000       5.760377       156.7478 
 686   0.0000       5.804212       157.9406 
 687   0.0000       5.874981       159.8664 
 688   0.0000       5.880985       160.0297 
 689   0.0000       5.891263       160.3094 
 690   0.0000       5.902311       160.6100 
 691   0.0000       5.915290       160.9632 
 692   0.0000       5.928469       161.3218 
 693   0.0000       5.958118       162.1286 
 694   0.0000       5.995076       163.1343 
 695   0.0000       6.018232       163.7644 
 696   0.0000       6.055577       164.7806 
 697   0.0000       6.086644       165.6260 
 698   0.0000       6.154819       167.4811 
 699   0.0000       6.171907       167.9461 
 700   0.0000       6.186991       168.3566 
 701   0.0000       6.262679       170.4162 
 702   0.0000       6.331181       172.2802 
 703   0.0000       6.401426       174.1917 
 704   0.0000       6.485289       176.4737 
 705   0.0000       6.488117       176.5506 
 706   0.0000       6.503493       176.9690 
 707   0.0000       6.515848       177.3052 
 708   0.0000       6.521981       177.4721 
 709   0.0000       6.533144       177.7759 
 710   0.0000       6.593785       179.4260 
 711   0.0000       6.599257       179.5749 
 712   0.0000       6.632552       180.4809 
 713   0.0000       6.656605       181.1354 
 714   0.0000       6.682869       181.8501 
 715   0.0000       6.727728       183.0708 
 716   0.0000       6.741991       183.4589 
 717   0.0000       6.765017       184.0855 
 718   0.0000       6.765503       184.0987 
 719   0.0000       6.775678       184.3756 
 720   0.0000       6.795317       184.9100 
 721   0.0000       6.814616       185.4351 
 722   0.0000       6.818095       185.5298 
 723   0.0000       6.851804       186.4471 
 724   0.0000       6.864927       186.8042 
 725   0.0000       6.872109       186.9996 
 726   0.0000       6.884206       187.3288 
 727   0.0000       6.904227       187.8736 
 728   0.0000       6.934961       188.7099 
 729   0.0000       6.941732       188.8941 
 730   0.0000       6.983500       190.0307 
 731   0.0000       6.996003       190.3709 
 732   0.0000       7.107044       193.3925 
 733   0.0000       7.108128       193.4220 
 734   0.0000       7.153784       194.6644 
 735   0.0000       7.221282       196.5011 
 736   0.0000       7.247902       197.2254 
 737   0.0000       7.347272       199.9294 
 738   0.0000       7.358635       200.2386 
 739   0.0000       7.379224       200.7989 
 740   0.0000       7.521614       204.6735 
 741   0.0000       7.541230       205.2073 
 742   0.0000       7.555356       205.5917 
 743   0.0000       7.586985       206.4524 
 744   0.0000       7.603001       206.8882 
 745   0.0000       7.623572       207.4479 
 746   0.0000       7.641296       207.9302 
 747   0.0000       7.703039       209.6104 
 748   0.0000       7.714965       209.9349 
 749   0.0000       8.196574       223.0401 
 750   0.0000       8.385458       228.1799 
 751   0.0000      12.922261       351.6326 
 752   0.0000      12.950541       352.4021 
 753   0.0000      13.785559       375.1241 
 754   0.0000      15.794650       429.7943 
 755   0.0000      16.016820       435.8398 
 756   0.0000      16.241066       441.9419 
 757   0.0000      16.463836       448.0038 
 758   0.0000      17.905898       487.2443 
 759   0.0000      18.626690       506.8580 
 760   0.0000      19.352292       526.6026 
 761   0.0000      19.493818       530.4537 
 762   0.0000      20.161837       548.6315 

                    ********************************
                    * MULLIKEN POPULATION ANALYSIS *
                    ********************************

-----------------------
MULLIKEN ATOMIC CHARGES
-----------------------
   0 C :    0.874188
   1 C :   -0.771467
   2 H :    0.497093
   3 C :   -0.832777
   4 H :    0.533386
   5 C :    1.041073
   6 O :   -0.695646
   7 C :   -0.359540
   8 H :    0.372903
   9 C :   -1.007458
  10 H :    0.407129
  11 S :    1.967114
  12 O :   -0.947527
  13 O :   -0.951847
  14 N :   -0.592015
  15 H :    0.148805
  16 H :    0.146837
  17 C :   -0.935020
  18 H :    0.381035
  19 H :    0.360121
  20 H :    0.363613
Sum of atomic charges:   -0.0000000

--------------------------------
MULLIKEN REDUCED ORBITAL CHARGES
--------------------------------
  0 C s       :     2.784225  s :     2.784225
      pz      :     0.479663  p :     2.363222
      px      :     0.795971
      py      :     1.087588
      dz2     :    -0.027279  d :     0.023123
      dxz     :     0.072287
      dyz     :    -0.007022
      dx2y2   :    -0.027167
      dxy     :     0.012305
      f0      :     0.000545  f :    -0.044758
      f+1     :    -0.033338
      f-1     :     0.000437
      f+2     :    -0.006055
      f-2     :    -0.005575
      f+3     :    -0.001253
      f-3     :     0.000481
  1 C s       :     3.925086  s :     3.925086
      pz      :     0.872608  p :     2.839705
      px      :     1.046216
      py      :     0.920881
      dz2     :    -0.042290  d :     0.030316
      dxz     :     0.047480
      dyz     :     0.025908
      dx2y2   :    -0.015883
      dxy     :     0.015101
      f0      :    -0.001698  f :    -0.023639
      f+1     :    -0.024864
      f-1     :    -0.000184
      f+2     :     0.003014
      f-2     :    -0.000039
      f+3     :    -0.000657
      f-3     :     0.000789
  2 H s       :     0.488761  s :     0.488761
      pz      :     0.015288  p :     0.013945
      px      :    -0.019630
      py      :     0.018286
      dz2     :    -0.000885  d :     0.000201
      dxz     :    -0.001276
      dyz     :     0.001263
      dx2y2   :    -0.001293
      dxy     :     0.002393
  3 C s       :     3.620019  s :     3.620019
      pz      :     0.995289  p :     3.078103
      px      :     1.063555
      py      :     1.019259
      dz2     :    -0.001676  d :     0.156972
      dxz     :     0.086615
      dyz     :     0.032863
      dx2y2   :     0.021906
      dxy     :     0.017264
      f0      :    -0.001384  f :    -0.022317
      f+1     :    -0.024913
      f-1     :     0.000073
      f+2     :     0.003584
      f-2     :    -0.001268
      f+3     :    -0.000475
[...]
      f+3     :     0.026391
      f-3     :     0.026938
  4 H s       :     0.661001  s :     0.661001
      pz      :     0.095152  p :     0.296122
      px      :     0.116965
      py      :     0.084005
      dz2     :     0.052934  d :     0.216344
      dxz     :     0.051726
      dyz     :     0.024097
      dx2y2   :     0.046186
      dxy     :     0.041400
  5 C s       :     2.456957  s :     2.456957
      pz      :     0.725551  p :     2.183142
      px      :     0.880164
      py      :     0.577427
      dz2     :     0.297960  d :     1.089942
      dxz     :     0.305006
      dyz     :     0.198837
      dx2y2   :     0.150261
      dxy     :     0.137879
      f0      :     0.107406  f :     0.652650
      f+1     :     0.240215
      f-1     :     0.102908
      f+2     :     0.050799
      f-2     :     0.066985
      f+3     :     0.047179
      f-3     :     0.037158
  6 O s       :     2.973043  s :     2.973043
      pz      :     1.195008  p :     3.860646
      px      :     1.276669
      py      :     1.388969
      dz2     :     0.141028  d :     0.451523
      dxz     :     0.137865
      dyz     :     0.073753
      dx2y2   :     0.038692
      dxy     :     0.060185
      f0      :     0.021032  f :     0.124056
      f+1     :     0.048043
      f-1     :     0.016649
      f+2     :     0.008931
      f-2     :     0.009995
      f+3     :     0.005222
      f-3     :     0.014184
  7 C s       :     2.471868  s :     2.471868
      pz      :     0.833649  p :     2.293419
      px      :     0.825848
      py      :     0.633922
      dz2     :     0.192372  d :     0.679609
      dxz     :     0.234915
      dyz     :     0.104038
      dx2y2   :     0.090645
      dxy     :     0.057640
      f0      :     0.057389  f :     0.337171
      f+1     :     0.122034
      f-1     :     0.043811
      f+2     :     0.033934
      f-2     :     0.030858
      f+3     :     0.026877
      f-3     :     0.022266
  8 H s       :     0.643231  s :     0.643231
      pz      :     0.110146  p :     0.324087
      px      :     0.123092
      py      :     0.090849
      dz2     :     0.056435  d :     0.232958
      dxz     :     0.058549
      dyz     :     0.019546
      dx2y2   :     0.047588
      dxy     :     0.050840
  9 C s       :     2.483045  s :     2.483045
      pz      :     0.849629  p :     2.262946
      px      :     0.844610
      py      :     0.568707
      dz2     :     0.187887  d :     0.739162
      dxz     :     0.260548
      dyz     :     0.125355
      dx2y2   :     0.089174
      dxy     :     0.076199
      f0      :     0.056251  f :     0.356888
      f+1     :     0.129701
      f-1     :     0.046786
      f+2     :     0.036924
      f-2     :     0.028295
      f+3     :     0.027403
      f-3     :     0.031528
 10 H s       :     0.652056  s :     0.652056
      pz      :     0.111647  p :     0.311111
      px      :     0.122498
      py      :     0.076965
      dz2     :     0.063176  d :     0.228282
      dxz     :     0.053584
      dyz     :     0.022159
      dx2y2   :     0.047167
      dxy     :     0.042197
 11 S s       :     4.485094  s :     4.485094
      pz      :     2.691577  p :     8.051920
      px      :     2.725263
      py      :     2.635080
      dz2     :     0.477033  d :     2.165068
      dxz     :     0.430454
      dyz     :     0.273951
      dx2y2   :     0.547931
      dxy     :     0.435699
      f0      :     0.121697  f :     1.181668
      f+1     :     0.215684
      f-1     :     0.109341
      f+2     :     0.177668
      f-2     :     0.118049
      f+3     :     0.253560
      f-3     :     0.185669
 12 O s       :     3.314969  s :     3.314969
      pz      :     1.462263  p :     4.320130
      px      :     1.402281
      py      :     1.455587
      dz2     :     0.040133  d :     0.222489
      dxz     :     0.061981
      dyz     :     0.011550
      dx2y2   :     0.058881
      dxy     :     0.049944
      f0      :     0.007062  f :     0.072287
      f+1     :     0.015441
      f-1     :     0.001861
      f+2     :     0.013213
      f-2     :     0.007149
      f+3     :     0.014594
      f-3     :     0.012966
 13 O s       :     3.316075  s :     3.316075
      pz      :     1.464649  p :     4.320321
      px      :     1.407756
      py      :     1.447916
      dz2     :     0.038000  d :     0.222000
      dxz     :     0.053775
      dyz     :     0.016448
      dx2y2   :     0.058338
      dxy     :     0.055440
      f0      :     0.006804  f :     0.072274
      f+1     :     0.012940
      f-1     :     0.003963
      f+2     :     0.008413
      f-2     :     0.010235
      f+3     :     0.014683
      f-3     :     0.015236
 14 N s       :     2.721955  s :     2.721955
      pz      :     1.167204  p :     3.116171
      px      :     0.998626
      py      :     0.950341
      dz2     :     0.042571  d :     0.367333
      dxz     :     0.028635
      dyz     :     0.068001
      dx2y2   :     0.104108
      dxy     :     0.124017
      f0      :     0.008722  f :     0.109299
      f+1     :     0.003108
      f-1     :     0.018779
      f+2     :     0.018060
      f-2     :     0.009460
      f+3     :     0.026883
      f-3     :     0.024286
 15 H s       :     0.608637  s :     0.608637
      pz      :     0.155807  p :     0.439178
      px      :     0.157183
      py      :     0.126188
      dz2     :     0.045916  d :     0.308276
      dxz     :     0.066444
      dyz     :     0.036503
      dx2y2   :     0.098199
      dxy     :     0.061213
 16 H s       :     0.608277  s :     0.608277
      pz      :     0.159215  p :     0.439879
      px      :     0.169818
      py      :     0.110846
      dz2     :     0.050663  d :     0.308345
      dxz     :     0.080497
      dyz     :     0.020889
      dx2y2   :     0.082545
      dxy     :     0.073751
 17 C s       :     2.456037  s :     2.456037
      pz      :     0.746192  p :     2.199247
      px      :     0.654770
      py      :     0.798285
      dz2     :     0.200853  d :     0.685684
      dxz     :     0.130038
      dyz     :     0.041735
      dx2y2   :     0.105101
      dxy     :     0.207957
      f0      :     0.028307  f :     0.318403
      f+1     :     0.080443
      f-1     :     0.010987
      f+2     :     0.046849
      f-2     :     0.057313
      f+3     :     0.050409
      f-3     :     0.044094
 18 H s       :     0.655262  s :     0.655262
      pz      :     0.135450  p :     0.295323
      px      :     0.071325
      py      :     0.088548
      dz2     :     0.053683  d :     0.224419
      dxz     :     0.075037
      dyz     :     0.070117
      dx2y2   :     0.004119
      dxy     :     0.021463
 19 H s       :     0.642499  s :     0.642499
      pz      :     0.088667  p :     0.303659
      px      :     0.077633
      py      :     0.137360
      dz2     :     0.032518  d :     0.223756
      dxz     :     0.025959
      dyz     :     0.049330
      dx2y2   :     0.067333
      dxy     :     0.048616
 20 H s       :     0.641884  s :     0.641884
      pz      :     0.094129  p :     0.303499
      px      :     0.084787
      py      :     0.124583
      dz2     :     0.041288  d :     0.223806
      dxz     :     0.036390
      dyz     :     0.034999
      dx2y2   :     0.071142
      dxy     :     0.039987


                      *****************************
                      * MAYER POPULATION ANALYSIS *
                      *****************************

  NA   - Mulliken gross atomic population
  ZA   - Total nuclear charge
  QA   - Mulliken gross atomic charge
  VA   - Mayer's total valence
  BVA  - Mayer's bonded valence
  FA   - Mayer's free valence

  ATOM       NA         ZA         QA         VA         BVA        FA
  0 C      5.1258     6.0000     0.8742     2.8217     2.8217     0.0000
  1 C      6.7715     6.0000    -0.7715     2.6562     2.6562    -0.0000
  2 H      0.5029     1.0000     0.4971     0.6557     0.6557     0.0000
  3 C      6.8328     6.0000    -0.8328     3.2003     3.2003    -0.0000
  4 H      0.4666     1.0000     0.5334     0.6084     0.6084     0.0000
  5 C      4.9589     6.0000     1.0411     2.4778     2.4778    -0.0000
  6 O      8.6956     8.0000    -0.6956     1.5918     1.5918     0.0000
  7 C      6.3595     6.0000    -0.3595     2.6843     2.6843     0.0000
  8 H      0.6271     1.0000     0.3729     0.7856     0.7856    -0.0000
  9 C      7.0075     6.0000    -1.0075     2.6029     2.6029    -0.0000
 10 H      0.5929     1.0000     0.4071     0.8150     0.8150    -0.0000
 11 S     14.0329    16.0000     1.9671     4.3702     4.3702    -0.0000
 12 O      8.9475     8.0000    -0.9475     1.4194     1.4194     0.0000
 13 O      8.9518     8.0000    -0.9518     1.4165     1.4165     0.0000
 14 N      7.5920     7.0000    -0.5920     2.9753     2.9753     0.0000
 15 H      0.8512     1.0000     0.1488     1.0615     1.0615     0.0000
 16 H      0.8532     1.0000     0.1468     1.0670     1.0670     0.0000
 17 C      6.9350     6.0000    -0.9350     3.6292     3.6292     0.0000
 18 H      0.6190     1.0000     0.3810     0.9685     0.9685     0.0000
 19 H      0.6399     1.0000     0.3601     0.9130     0.9130     0.0000
 20 H      0.6364     1.0000     0.3636     0.9146     0.9146    -0.0000

  Mayer bond orders larger than 0.100000
B(  0-C ,  1-C ) :   0.7692 B(  0-C ,  9-C ) :   0.7215 B(  0-C , 11-S ) :   0.9127 
B(  0-C , 12-O ) :   0.1528 B(  0-C , 13-O ) :   0.2107 B(  1-C ,  2-H ) :   0.6284 
B(  1-C ,  3-C ) :   1.4021 B(  1-C ,  5-C ) :  -0.1255 B(  3-C ,  4-H ) :   0.6337 
B(  3-C ,  5-C ) :   0.9125 B(  3-C ,  6-O ) :   0.2627 B(  5-C ,  6-O ) :   0.5139 
B(  5-C ,  7-C ) :   1.1496 B(  6-O ,  7-C ) :  -0.2821 B(  6-O , 17-C ) :   1.0211 
B(  7-C ,  8-H ) :   0.8668 B(  7-C ,  9-C ) :   1.1311 B(  9-C , 10-H ) :   0.8146 
B( 11-S , 12-O ) :   1.2832 B( 11-S , 13-O ) :   1.2313 B( 11-S , 14-N ) :   0.9638 
B( 14-N , 15-H ) :   0.9538 B( 14-N , 16-H ) :   0.9513 B( 17-C , 18-H ) :   0.9033 
B( 17-C , 19-H ) :   0.8693 B( 17-C , 20-H ) :   0.8762 

-------
TIMINGS
-------

Total SCF time: 0 days 0 hours 2 min 36 sec 

Total time                  ....     156.519 sec
Sum of individual times     ....     154.791 sec  ( 98.9%)

Fock matrix formation       ....     149.255 sec  ( 95.4%)
  Split-RI-J                ....       8.931 sec  (  6.0% of F)
  Chain of spheres X        ....     120.385 sec  ( 80.7% of F)
  XC integration            ....      19.087 sec  ( 12.8% of F)
    Basis function eval.    ....       2.456 sec  ( 12.9% of XC)
    Density eval.           ....       5.072 sec  ( 26.6% of XC)
    XC-Functional eval.     ....       0.195 sec  (  1.0% of XC)
    XC-Potential eval.      ....       6.476 sec  ( 33.9% of XC)
Diagonalization             ....       1.035 sec  (  0.7%)
Density matrix formation    ....       0.094 sec  (  0.1%)
Population analysis         ....       0.115 sec  (  0.1%)
Initial guess               ....       0.918 sec  (  0.6%)
Orbital Transformation      ....       0.000 sec  (  0.0%)
Orbital Orthonormalization  ....       0.000 sec  (  0.0%)
DIIS solution               ....       0.532 sec  (  0.3%)
SOSCF solution              ....       0.896 sec  (  0.6%)
Grid generation             ....       1.945 sec  (  1.2%)

Maximum memory used throughout the entire SCF-calculation: 166.4 MB


           ************************************************************
           *        Program running with 8 parallel MPI-processes     *
           *              working on a common directory               *
           ************************************************************

------------------------------------------------------------------------------
                                ORCA  MP2 
------------------------------------------------------------------------------

Freezing NCore=32 chemical core electrons

   <<< Use J-auxbasis for calculation of Separable RI-J derivative contributions (Dim=689) >>> 


-------------
RI-MP2 ENERGY
-------------
Dimension of the basis                    ...  763
Memory devoted to MP2                     ... 3000 MB   
Data format for buffers                   ... DOUBLE
Compression type for matrix containers    ... UNCOMPRESSED
Scaling for aa/bb pairs                   ...   2.500e-01
Scaling for ab pairs                      ...   5.300e-01
Overall scaling of the MP2 energy         ...   1.000e+00
Calculating two index integrals           ... done (    0.028 sec)
Cholesky decomposition of V**-1           ... done (    0.237 sec)

-----------------
RI-TRANSFORMATION (AUX index driven)
-----------------

Dimension of the orbital-basis         ... 763
Dimension of the aux-basis             ... 1727
Transformation of internal/external MOs...   16-  48 to   49- 762
Number Format for Storage              ... Double (8 Byte)
Integral mode                          ... Direct

First Phase: integral generation and transformation of MO indices
  Aux angular momentum 0               ... done (    0.269 sec)
  Aux angular momentum 1               ... done (    0.501 sec)
  Aux angular momentum 2               ... done (    0.701 sec)
  Aux angular momentum 3               ... done (    0.687 sec)
  Aux angular momentum 4               ... done (    0.397 sec)
Closing buffer VIA ( 0.30 GB; CompressionRatio= 1.00)
  Phase 1 completed in     2.922 sec
Second Phase: sorting and transformation of aux index

IA-Transformation
Memory available                       ... 2920 MB 
Max. # MO pairs treated in a batch     ... 5    
# of internal orbitals                 ... 33
# batches for internal orbitals        ... 1
Closing buffer IAV ( 0.30 GB; CompressionRatio= 1.00)
(ia|v) transformation done in     0.495 sec

  Phase 2 completed in     0.593 sec
RI-Integral transformation completed in     3.518 sec
Opening buffers                              ... done

Starting loop over batches of integrals:

Operator 0  - window                       ... ( 16- 48)x( 49-762)
Operator 0  - Memory available             ...  3000 MB
Operator 0  - Memory needed per MO         ...   9.4 MB
Operator 0  - Number of orbitals per batch ... 5
Operator 0  - Number of batches            ... 1

OPERATOR  0   PASS   0:  MOs    16 ...   20 +   21 ...   25 +   26 ...   30 +   31 ...   35
                            +   36 ...   40 +   41 ...   45 +   46 ...   48
  Reading integrals       ... ok
  Internal MO  18
Time spent in pair loops =     0.525 sec
Deleting buffer (Ka|jb)[aa] ...done

-----------------------------------------------
 RI-MP2 CORRELATION ENERGY:     -1.168433736 Eh
-----------------------------------------------


-------
TIMINGS
-------

Total time                :    8.835 sec
Integral trafo            :    3.531 sec ( 40.0%)
I/O of integrals          :    0.021 sec (  0.2%)
K(i,j) Operators          :    0.408 sec (  4.6%)
T(i,j) pair energies      :    0.054 sec (  0.6%)
V-calculation             :    0.028 sec (  0.3%)
V**(-1/2)                 :    0.237 sec (  2.7%)
Gamma(ia|P)               :    0.000 sec (  0.0%)
Gamma-Trafo               :    0.000 sec (  0.0%)
D(virtual)                :    0.000 sec (  0.0%)
D(internal)               :    0.000 sec (  0.0%)
W(virtual)                :    0.000 sec (  0.0%)
W(internal)               :    0.000 sec (  0.0%)
L(virtual)                :    0.000 sec (  0.0%)
L(internal)               :    0.000 sec (  0.0%)
G(D)                      :    0.000 sec (  0.0%)
G(Z)                      :    0.000 sec (  0.0%)
Z-Vector Solution         :    0.000 sec (  0.0%)
3-Index Derivative        :    0.000 sec (  0.0%)
2-Index Derivative        :    0.000 sec (  0.0%)
Separable Gradient (RIJ)  :    0.000 sec (  0.0%)
Separable Gradient (COSX) :    0.000 sec (  0.0%)


---------------------------------------
MP2 TOTAL ENERGY:     -949.724452904 Eh
---------------------------------------

Maximum memory used throughout the entire MP2-calculation: 187.8 MB


-------------------------------------------------------------------------------
                          DFT DISPERSION CORRECTION                            
                                                                               
                              DFTD3 V3.1  Rev 1                                
                          USING Becke-Johnson damping                          
-------------------------------------------------------------------------------
The DSD-PBEP86 functional is recognized
Active option DFTDOPT                   ...         4   

molecular C6(AA) [au] = 5675.555541 


            DFT-D V3
 parameters
 s6 scaling factor         :     0.4180 
 a1 scaling factor         :     0.0000 
 s8 scaling factor         :     0.0000 
 a2 scaling factor         :     5.6500 
 ad hoc parameters k1-k3   :    16.0000     1.3333    -4.0000 

 Edisp/kcal,au: -9.233104588452  -0.014713887177 
 E6   /kcal   :  -9.233104588 
 E8   /kcal   :  -0.000000000 
 % E8         :   0.000000000 

-------------------------   ----------------
Dispersion correction           -0.014713887
-------------------------   ----------------


-------------------------   --------------------
FINAL SINGLE POINT ENERGY      -949.739166791556
-------------------------   --------------------


                            ***************************************
                            *     ORCA property calculations      *
                            ***************************************


  WARNING: The energy has been calculated at the MP2 level but the densities
           used in the property calculations are still SCF densities
           MP2 response densities have not been calculated 
           use %mp2 Density relaxed end
           or  %mp2 Density unrelaxed end

                                    ---------------------
                                    Active property flags
                                    ---------------------
   (+) Dipole Moment


------------------------------------------------------------------------------
                       ORCA ELECTRIC PROPERTIES CALCULATION
------------------------------------------------------------------------------

Dipole Moment Calculation                       ... on
Quadrupole Moment Calculation                   ... off
Polarizability Calculation                      ... off
GBWName                                         ... HA.9.avtz.gbw
Electron density                                ... HA.9.avtz.scfp
The origin for moment calculation is the CENTER OF MASS  = (-2.282003,  1.413737 -2.545666)

-------------
DIPOLE MOMENT
-------------
                                X             Y             Z
Electronic contribution:     -2.89267       1.10042       9.86311
Nuclear contribution   :      3.36166      -2.27093     -12.33372
                        -----------------------------------------
Total Dipole Moment    :      0.46899      -1.17052      -2.47061
                        -----------------------------------------
Magnitude (a.u.)       :      2.77380
Magnitude (Debye)      :      7.05044



--------------------
Rotational spectrum 
--------------------
 
Rotational constants in cm-1:     0.079588     0.013801     0.012727 
Rotational constants in MHz :  2385.975087   413.730606   381.538174 

 Dipole components along the rotational axes: 
x,y,z [a.u.] :    -2.344566    -0.307955     1.449876 
x,y,z [Debye]:    -5.959413    -0.782758     3.685291 

 

Timings for individual modules:

Sum of individual times         ...      170.994 sec (=   2.850 min)
GTO integral calculation        ...        2.811 sec (=   0.047 min)   1.6 %
SCF iterations                  ...      157.908 sec (=   2.632 min)  92.3 %
MP2 module                      ...       10.275 sec (=   0.171 min)   6.0 %
                             ****ORCA TERMINATED NORMALLY****
TOTAL RUN TIME: 0 days 0 hours 2 minutes 53 seconds 607 msec
